,full_formula,band_gap,spacegroup.number,structure.lattice.a,structure.lattice.b,structure.lattice.c,structure.lattice.alpha,structure.lattice.beta,structure.lattice.gamma
9847,Mg2O8S2,5.483,63,4.751936,4.751936,6.593394,90.0,90.0,113.0746
9848,Cl6K2Ti1,2.6192,225,7.114493,7.114493,7.114493,60.0,60.0,60.0
9849,B4C4Ca2,0.4817,140,5.312945,5.312945,5.312945,119.3545,119.3545,91.12179
9850,Cl16F4Sb4,1.4273,82,10.38899,10.38899,10.38899,99.25138,99.25138,132.724
9851,Cs6F14Ge2,4.3375,127,8.557986,8.557986,6.340332,90.0,90.0,90.0
9852,As2Ca2Cu2,0.111,194,4.215579,4.215579,7.875202,90.0,90.0,120.0021
9853,Cd2O8W2,3.0785,13,6.00757,5.077196,5.156207,88.68069,90.0,90.0
9854,O6Sr2Ti2,2.3062,140,5.615124,5.613875,5.615124,60.00736,59.98529,60.00736
9855,Bi2S1Te2,0.36210000000000003,166,10.54773,10.54773,10.54773,23.46267,23.46267,23.46267
9856,Ag1Nb1O3,1.7711999999999999,221,3.999972,3.999972,3.999972,90.0,90.0,90.0
9857,O14Ti4Y4,3.2888,227,7.240468,7.240468,7.240468,60.0,60.0,60.0
9858,Mn4Mo4O16,2.6188000000000002,12,7.217139,7.217139,7.264655,78.22853,78.22853,84.35191
9859,Ge2Mg2O6,3.6308,148,5.466553,5.466553,5.466553,54.56799,54.56799,54.56799
9860,B2Cr2O6,2.2628,167,5.561843,5.561843,5.561843,49.3313,49.3313,49.3313
9861,Cd28Cl24P16,1.7829000000000002,205,12.08626,12.08626,12.08626,90.0,90.0,90.0
9862,Ba3H27Re3,2.8943000000000003,143,7.022618,7.022324,7.457942,89.99595,89.99864,120.0021
9863,Mn8Nb4O18,2.1064,165,5.396037,5.396024,14.48658,90.00008,90.0,120.0001
9864,Sb1Te2Tl1,0.1558,166,8.356822,8.356822,8.356822,31.20651,31.20651,31.20651
9865,O3Sr1Zr1,3.2147,221,4.198544,4.198544,4.198544,90.0,90.0,90.0
9866,Cl6N6Ti2,2.6769,2,6.985885,7.841448,5.969739,97.70119,100.8529,89.40362
9867,Cl2La2O2,4.4728,129,4.183363,4.183363,6.982252,90.0,90.0,90.0
9868,Cl2Eu2F2,3.0258,129,4.166086,4.166086,7.060416,90.0,90.0,90.0
9869,O16Te4V4,1.2919,14,5.039964,5.135042,12.37671,82.95789,90.0,90.0
9870,I10In2Sn4,1.4096,140,10.06133,10.06133,10.06133,127.249,127.249,77.84478
9871,Ba4Fe8Se12,0.9169,14,5.512786,9.748706,12.35321,90.0,90.04547,90.0
9872,B4H16Li4,6.937,62,4.4072949999999995,6.687569,7.153113,90.0,90.0,90.0
9873,Cd1F3Te1,0.1198,221,4.520836,4.520836,4.520836,90.0,90.0,90.0
9874,Au4Ba2F16,2.9617,82,8.046722,8.046722,8.046722,103.3182,103.3182,122.6347
9875,Br7Mn2Rb3,2.1927,139,14.43532,14.43532,14.43532,158.2953,158.2953,30.88437
9876,C4Cu2Rb2,2.334,131,4.950515,4.950515,8.305838,90.0,90.0,90.0
9877,H2Ni1O2,3.091,164,3.163109,3.163109,4.519402,90.00295,89.99705,120.002
9878,I10In2Sn4,1.4148,140,10.03533,10.03533,10.03533,127.1297,127.1297,78.03915
9879,Mn4Nb8O24,2.7948,60,5.140859,5.867912,14.59752,90.0,90.0,90.0
9880,Cs4F16Mn4,0.1658,129,8.073676,8.073676,6.454652,90.0,90.0,90.0
9881,Cd4Cl12Rb4,3.6154,62,4.10627,9.124389,15.30713,90.0,90.0,90.0
9882,Au1Be1F3,1.2458,221,3.720531,3.720531,3.720531,90.0,90.0,90.0
9883,Ag4Ge2S6,0.9904000000000001,36,7.058012,7.058012,6.49836,90.0,90.0,118.9256
9884,O6Sr2Zr2,3.5488,140,5.90887,5.90887,5.90887,120.7081,120.7081,88.77785
9885,Eu1O3Ti1,0.7182000000000001,221,3.9660900000000003,3.9660900000000003,3.9660900000000003,90.0,90.0,90.0
9886,As4Cd12Cl12,1.4826000000000001,62,7.1677669999999996,8.241581,13.39595,90.0,90.0039,90.0
9887,Mo2O8Pb2,2.758,88,7.279475,7.279475,7.279475,135.3945,135.3945,64.91793
9888,Al2F8K2,6.9086,127,5.135466,5.135466,6.292372,90.0,90.0,90.0
9889,Ca8Fe8O20,0.6177,62,5.658106,5.537915,14.88529,90.0,90.0,90.0
9890,Ca8Mn4O16,0.3381,142,12.79168,12.79168,12.79168,156.3074,156.3074,33.75413
9891,N4O2Si4,4.9403,36,5.265741,5.265741,4.892564,90.0,90.0,116.5813
9892,I8O24Zr2,3.1716,85,8.531794,8.531794,7.540006,90.0,90.0,90.0
9893,Cr4La4O12,2.075,62,5.61906,5.6039259999999995,7.92136,90.0,90.0,90.0
9894,Cd4Nb4O14,2.0805,227,7.4320640000000004,7.4320640000000004,7.4320640000000004,60.0,60.0,60.0
9895,B1Nb1Pd1,0.6651,216,4.026053,4.026053,4.026053,60.0,60.0,60.0
9896,Na8O12S8,3.9107000000000003,14,8.857599,6.456328,9.125767,74.17137,90.0,90.0
9897,B4Cl4F24,3.3334,14,9.262802,6.089296,9.347756,81.45665,90.0,90.0
9898,Cl24Hf4Te24,1.0195,57,11.41216,11.43475,13.10139,90.0,90.0,90.0
9899,Ca8O16Si4,4.2509,14,6.07676,5.609765,12.13124,84.60574,90.0,90.0
9900,O7Sr3V2,0.2011,139,10.33989,10.33989,10.33989,157.8149,157.8149,31.57696
9901,Ba2O8W2,2.4494,11,5.784133,4.366426,7.778895,75.08599,90.00005,90.0
9902,Au10F42Ho4,2.1682,2,12.06141,9.127932,8.068019,91.02982,90.97755,89.27571
9903,Ga4O8Pb2,3.4804,1,5.430498,8.700518,5.322277,90.05067,60.68984,89.77755
9904,O14Sr4Ta4,3.0319,63,14.00355,14.00355,5.762821,90.0,90.0,163.5594
9905,O14Tl3V5,2.1645,157,8.813086,8.812975,5.44474,90.00015,89.9997,120.0004
9906,Cl24Mo2Se4,0.9859,43,12.88741,12.74224,9.161797,69.90552,68.20965,41.89078
9907,Ca2Ge4O10,2.414,15,5.558576,5.558576,6.97983,76.22672,76.22672,106.4713
9908,Cl18Cs6Cu6,1.2435,178,7.37513,7.37513,18.53073,90.0,90.0,120.0
9909,Bi8Ge6O24,3.4596,220,9.255034,9.255034,9.255034,109.4712,109.4712,109.4712
9910,Ge1Li2Zn1,0.028800000000000003,216,4.351469,4.351469,4.351469,60.0,60.0,60.0
9911,F3Sb1Xe1,1.6545,221,4.597251,4.597251,4.597251,90.0,90.0,90.0
9912,K12S12Sb4,2.6853,198,9.619149,9.619149,9.619149,90.0,90.0,90.0
9913,Bi8Cu4O16,0.8319000000000001,130,8.532446,8.532446,6.017704,90.0,90.0,90.0
9914,B1Pd1Ta1,0.9012,216,4.052643,4.052643,4.052643,60.0,60.0,60.0
9915,Ga2H8Li2,4.6052,63,4.797091,4.797091,6.160463,90.0,90.0,95.08642
9916,Ir1Sn1Ta1,1.2281,216,4.419531,4.419531,4.419531,60.0,60.0,60.0
9917,Mg8O16Si4,4.6408000000000005,62,4.803879,6.045452,10.32248,90.0,90.0,90.0
9918,Fe4O8Si2,2.404,227,5.893457,5.893457,5.893457,60.0,60.0,60.0
9919,P2S6Zn2,2.2182,12,5.960705,5.960705,7.063691,81.91587,81.91587,119.963
9920,Al3O12P3,3.1928,181,7.399984,7.399984,5.274993,90.0,90.0,120.0
9921,Ca2O6Si2,3.6858,140,5.114585,5.114585,5.114585,120.5084,120.5084,89.12174
9922,Bi10Mo3O24,2.6881,5,12.32569,12.32569,8.868612,84.3722,84.3722,26.97775
9923,K2O3Sn2,1.3165,160,5.998727,5.998727,5.998727,62.5348,62.5348,62.5348
9924,O4S1Zn1,4.8011,216,5.46596,5.46596,5.46596,60.0,60.0,60.0
9925,C2Mg2O6,4.9565,167,5.74322,5.74322,5.74322,48.19853,48.19853,48.19853
9926,Gd1Ni1Sb1,0.0879,216,4.5150500000000005,4.5150500000000005,4.5150500000000005,60.0,60.0,60.0
9927,C2Na4O6,3.8277,12,5.220171,5.220171,6.152415,79.80179,79.80179,61.33131
9928,F28K8Ta4,5.688,62,5.905509,9.903985,11.83334,90.0,90.0,90.0
9929,Nb2O10P2,3.3894,129,6.506465,6.506465,4.126321,90.0,90.0,90.0
9930,Cl6Ge2Rb2,3.7692,11,7.155655,5.909753,8.209295,73.1336,90.0,90.0
9931,Cl18Cs6Ru4,0.9450000000000001,63,7.432474,7.432474,18.72677,90.0,90.0,119.8338
9932,Ni2O6Ti2,2.9441,148,5.507117,5.507117,5.507117,55.39562,55.39562,55.39562
9933,Al8H24O24,4.9461,14,5.198068,8.593833,9.834192,79.06036,90.0,90.0
9934,H3K1Mg1,2.4977,221,4.006441,4.006441,4.006441,90.0,90.0,90.0
9935,Ge6O18Pb6,2.6552,148,9.495034,9.495034,9.495034,113.5101,113.5101,113.5101
9936,Cl12Cs4Li8,5.249,60,6.901375,7.480318,12.69228,90.0,90.0,90.0
9937,Ca1Cs1F3,6.9117,221,4.579544,4.579544,4.579544,90.0,90.0,90.0
9938,La6O12U1,2.6747,148,7.004791,7.004791,7.004791,98.66245,98.66245,98.66245
9939,O4S8Sb8,1.2329,2,11.09011,8.424612,6.082392,66.93889,75.42022,68.65771
9940,Rb16S32Zr8,1.9062999999999999,61,6.845752,9.892257,24.58321,90.0,90.0,90.0
9941,Ag8S12Si4,1.818,14,6.768728,6.795417,11.78154,88.419,90.0,90.0
9942,Mn8S16Si4,1.6899000000000002,62,5.987755,7.542978,12.86323,90.0,90.0,90.0
9943,K1O3Ta1,2.3227,221,4.043674,4.043674,4.043674,90.0,90.0,90.0
9944,Ge2Na8O8,2.8157,2,5.739672,5.751637,8.680279,81.45183,71.39791,68.27227
9945,Ba1Ce1O3,2.9608,221,4.504211,4.504211,4.504211,90.0,90.0,90.0
9946,Cl6K2Pt1,1.9817,225,7.077587,7.077587,7.077587,60.0,60.0,60.0
9947,Br6Cs2Te1,2.1604,225,8.003669,8.003669,8.003669,60.0,60.0,60.0
9948,Li4O6Si2,5.0847,36,5.473628,5.473628,4.727625,90.0,90.0,120.2268
9949,Al4S8Sr2,3.8953,66,6.083549,6.083549,10.66727,90.0,90.0,121.331
9950,Cd4Cs12I20,2.8801,62,10.30641,12.03708,15.3242,90.0,90.0,90.0
9951,Na1Ni1O2,0.458,12,3.060299,3.060299,5.663429,71.35171,71.35171,55.83983
9952,Ca6Mn4O14,0.28150000000000003,36,10.08094,10.08094,5.391152,90.0,90.0,149.2201
9953,C2O8Rb8,0.47340000000000004,8,8.169182,7.090727,8.353829,67.23411,90.0,90.0
9954,P4Ru4S4,0.667,14,5.808244,5.76468,5.8368400000000005,69.39598,90.0,90.0
9955,F12Li4Mo2,1.2257,136,4.788215,4.788215,9.32153,90.0,90.0,90.0
9956,Na16Sb8Sn2,0.1867,227,10.51057,10.51057,10.51057,60.0,60.0,60.0
9957,Br2H8N2,4.2706,129,5.807525,5.807525,4.176305,90.0,90.0,90.0
9958,Al1Co1Mn2,0.019200000000000002,216,4.02812,4.02812,4.02812,60.0,60.0,60.0
9959,F24K4Sb4,4.9355,206,9.020994,9.020994,9.020994,109.4712,109.4712,109.4712
9960,Cu4Er4S8,1.9162,19,3.95979,6.273219,13.36497,90.0,90.0,90.0
9961,La6O18Re4,0.4973,2,6.970296,5.75936,11.32385,75.58476,77.39429,68.96623
9962,Na4O12Ta4,2.7228,62,5.592147,7.936676,5.564444,90.0,90.0,90.0
9963,Be4O24P8,5.8317,20,7.219479,7.219479,8.902847,90.0,90.0,89.04019
9964,Li5O5Sb1,2.9349,12,5.325034,5.325034,5.876001,72.57242,72.57242,44.83493
9965,Ba1O3Ti1,2.132,99,4.060683,4.060683,4.066113,90.0,90.0,90.0
9966,As8O32Zn12,2.423,14,8.831790999999999,6.625386,10.97464,86.25192,90.0,90.0
9967,Ge4Na8Te10,0.9696,2,10.81177,9.723959,7.977852,67.78517,70.81133,68.2751
9968,Al2H6O6,5.0071,1,5.203731,5.178115,5.141226,76.65052,57.14835,68.26511
9969,C1Ca1N2,3.5625,166,5.399567,5.399567,5.399567,40.39979,40.39979,40.39979
9970,C12N18Nd2,1.8551000000000002,63,7.184937,7.184937,10.70675,90.0,90.0,114.2143
9971,Cl20K8La4,4.8553,62,8.206161,8.964723,13.05481,90.0,90.0,90.0
9972,H2In2O4,2.0422,58,3.311136,4.551687,5.33075,90.0,90.0,90.0
9973,Ba2F2I2,4.0039,129,4.693715,4.693715,8.208908,90.0,90.0,90.0
9974,Li2Ni1O2,3.2641999999999998,164,3.131778,3.131823,5.081039,89.99993,90.00068,120.0015
9975,Ba2F20Te4,4.8828,15,9.191675,9.191675,10.50384,68.13502,68.13502,31.29329
9976,Al4O8Zn2,4.4913,227,5.731241,5.731241,5.731241,60.0,60.0,60.0
9977,Ge24O54Rb12,2.8022,165,12.2905,12.2905,10.04684,89.99985,90.00015,120.0025
9978,Ba6O18Ti6,2.1862,20,5.820759,5.820759,14.20797,90.0,90.0,119.9909
9979,As1Nb1Ru1,0.616,216,4.218279,4.218279,4.218279,60.0,60.0,60.0
9980,F3K1Mn1,2.6978,221,4.266447,4.266447,4.266447,90.0,90.0,90.0
9981,Mg4O24V8,2.1558,60,4.870544,5.639625,13.74096,90.0,90.0,90.0
9982,In2Li2Te4,1.4232,122,7.8807279999999995,7.8807279999999995,7.8807279999999995,131.0206,131.0206,71.78042
9983,C1Cl2Sc2,1.0974,164,3.496709,3.496699,9.21158,89.99961,90.0,120.0001
9984,Cr4La4O12,2.0765,62,5.620132,5.602658,7.921786,90.0,90.0,90.0
9985,Al4O36P12,5.8131,14,15.27314,6.160332,8.29173,74.92982,90.0,90.0
9986,Cl2H12Sr7,3.8637,174,9.972085,9.97203,3.944226,90.0,90.0,120.0002
9987,Bi1Ga1Rb2,0.32830000000000004,225,6.118782,6.118782,6.118782,60.0,60.0,60.0
9988,Co4Ge4O12,1.8869,15,6.700228,6.700228,5.234256,81.39613,81.39613,85.96532
9989,Mo8O44P8,2.6707,62,6.395174,10.81404,12.88456,90.0,90.0,90.0
9990,Ag2Ga2Se4,0.6972,122,7.070117,7.070117,7.070117,128.8521,128.8521,75.24869
9991,Co2K4S4,1.9597,72,7.841838,7.841838,7.841838,133.213,128.4387,72.15819
9992,La8Ni4O16,1.0899,138,5.615455,5.615455,12.62756,90.0,90.0,90.0
9993,Cl36P4Te4,1.8014999999999999,46,12.55894,12.55894,12.55894,119.3445,119.2751,91.19973
9994,N4O2Si4,4.9349,36,5.265905,5.265905,4.8932970000000005,90.0,90.0,116.5367
9995,Rb8Se24Tc12,0.7968000000000001,15,10.34005,10.34005,12.66443,88.77095,88.77095,59.82093
9996,Na4O8S2,4.9995,63,5.338539,5.338539,7.031567,90.0,90.0,115.7476
9997,Co4Nb8O24,3.1891,60,5.09595,5.779851,14.36623,90.0,90.0,90.0
9998,Ag8Cr4O16,2.1654,62,5.645899,7.166693,10.22668,90.0,90.0,90.0
9999,Ge4N24Sr28,1.1281,60,6.625504,11.68379,13.9379,90.0,90.0,90.0
10000,In2O7Si2,2.8294,12,5.490677,5.490677,4.759627,82.22817,82.22817,104.9367
10001,Bi1Ga1Li2,0.022600000000000002,225,4.842053,4.842053,4.842053,60.0,60.0,60.0
10002,Ba2H18Re2,3.6664,11,9.418155,5.083389,5.148685,64.58898,90.0,90.0
10003,C8K2N6,3.7383,2,8.817665,9.097713,3.98499,94.93548,89.15075,105.5226
10004,Fe1La2Pb1,0.0374,216,5.171476,5.171476,5.171476,60.0,60.0,60.0
10005,K4S6Ti2,1.5319,15,7.310354,7.310694,6.616402,88.33683,88.33651,70.02526
10006,O6Sb2U1,2.2533,12,7.211799,7.211799,5.421171,75.91089,75.91089,32.80113
10007,Ge2S8Yb4,1.7508,11,6.674668,6.565849,7.753705,72.47568,90.0,90.0
10008,In2Li2Se4,1.6333000000000002,122,7.33059,7.33059,7.33059,131.5724,131.5724,70.90524
10009,Br24N12P12,3.0407,62,7.111022,14.41555,15.42371,90.0,90.0,90.0
10010,Nb6O18Pb3,2.7347,160,7.295483,7.295483,7.295483,94.42536,94.42536,94.42536
10011,F2Mg4N2,2.1294,141,5.896991,5.896991,5.896991,138.0642,138.0642,60.80467
10012,Er2H6O6,3.7799,176,6.34522,6.345194,3.477234,90.0,90.0,120.0002
10013,C4Cs2O4,2.6864,12,6.745043,6.745043,4.831996,88.3775,88.3775,64.26907
10014,As2O6Sr1,3.2566,162,4.952568,4.952568,5.504847,89.99967,89.99967,119.9992
10015,Ba1Cr1F3,0.6496000000000001,221,5.077528,5.077528,5.077528,90.0,90.0,90.0
10016,Rb1S8V5,0.33480000000000004,12,9.313865,9.313865,8.700704,74.76466,74.76466,22.16082
10017,Cr4O8Zn2,2.6342,227,5.951036,5.951036,5.951036,60.0,60.0,60.0
10018,B4H16Na4,6.5187,62,4.3713,6.077625,8.255192,90.0,90.0,90.0
10019,Nd4O14Zr4,3.3495,227,7.650922,7.650922,7.650922,60.0,60.0,60.0
10020,Ge1O3Ti1,1.9074,221,3.914765,3.914765,3.914765,90.0,90.0,90.0
10021,In4S8Zn2,1.3966,227,7.548028,7.548028,7.548028,60.0,60.0,60.0
10022,Cu2H4O4,1.3348,36,5.475833,5.475833,5.498878,90.0,90.0,148.5458
10023,Eu8O16Si4,1.99,14,7.162948,5.744491,9.860523,86.77511,90.0,90.0
10024,Hg8O20Re4,1.4925000000000002,2,8.235412,10.01272,9.270924,57.03543,79.24431,78.81804
10025,F3P1Y1,1.0389,221,4.488581,4.488581,4.488581,90.0,90.0,90.0
10026,Cd6Cl4O4,1.3086,14,6.808551,6.541654,6.752307,63.72206,90.0,90.0
10027,C2Cl28Zr12,1.2782,64,9.688068,9.688068,11.67645,90.0,90.0,95.43663
10028,Mn1Na1O2,1.15,12,3.227273,3.227273,5.846521,69.6959,69.6959,53.94659
10029,Cd1In2Se4,0.9367000000000001,111,6.073985,5.876508,5.876508,90.0,90.0,90.0
10030,F2Mg4N2,2.1112,141,5.895986,5.895986,5.895986,138.0192,138.0192,60.87355
10031,Al8O20Si4,4.8422,58,5.613206,7.869346,7.9782,90.0,90.0,90.0
10032,Mg2O10V4,1.9656,63,5.418267,5.418267,11.17744,90.0,90.0,139.7492
10033,Bi12O20Si1,2.421,197,8.882268,8.882268,8.882268,109.4712,109.4712,109.4712
10034,Cl16F4Sb4,1.4176,82,10.45797,10.45797,10.45797,99.36809,99.36809,132.4112
10035,Be2Li2Sb2,0.8711000000000001,186,4.17867,4.178693,6.792717,89.99999,90.0,120.0008
10036,Bi1Cd1F3,0.9339000000000001,221,4.672277,4.672277,4.672277,90.0,90.0,90.0
10037,Ba2O4Sn1,2.0797,139,7.368183,7.368183,7.368183,146.2596,146.2596,48.46133
10038,Cd6Sb12Sr11,0.3269,12,16.81599,16.81599,12.73018,70.32436,70.32436,16.50162
10039,Fe4Mn2O8,0.7783,227,6.101205,6.101205,6.101205,60.0,60.0,60.0
10040,K8Mo4S16,1.5154,62,6.981821,9.57748,12.47774,90.0,90.0,90.0
10041,Fe1Sb1V1,0.8361000000000001,216,4.095354,4.095354,4.095354,60.0,60.0,60.0
10042,Fe2Ga1V1,0.6999000000000001,225,4.050281,4.050281,4.050281,60.0,60.0,60.0
10043,Cr4Mg4O16,2.3463,12,6.842143,6.842143,6.83682,79.96307,79.96307,85.3301
10044,Nd2O2Te1,1.604,139,7.164818,7.164818,7.164818,146.9218,146.9218,47.47962
10045,Ni1Sb1Y1,0.08700000000000001,216,4.488533,4.488533,4.488533,60.0,60.0,60.0
10046,Bi10Cl24Ga6,1.803,161,12.42517,12.42517,12.42517,58.00751,58.00751,58.00751
10047,Cr4Sb4Se12,0.6197,62,3.883998,9.491223,13.52187,89.99521,90.0,90.0
10048,Mo16O44Y16,0.3481,55,5.720333,10.7971,16.01705,90.0,90.0,90.0
10049,K8Se12Te4,1.7702,14,6.733607,10.52656,13.41359,75.04985,90.0,90.0
10050,C1Cs4O4,0.8183,121,7.669078,7.669078,7.669078,98.19438,98.19438,135.638
10051,O16S4Sn4,3.6162,14,9.998073,5.395826,9.274864,54.42495,101.7785,90.0
10052,Ag8Nb8O24,2.1344,57,5.61606,5.653714,15.85591,90.0,90.0,90.0
10053,In1Na1O2,2.0604,166,5.851185,5.851185,5.851185,32.44146,32.44146,32.44146
10054,K2P2S6,1.7118,71,7.24682,7.24682,7.24682,122.0974,106.8894,100.26
10055,As2Ca2Rb2,1.3057,129,5.17334,5.17334,8.009531,90.0,90.0,90.0
10056,Bi2Cl2O2,2.5658000000000003,129,3.93031,3.93031,7.68982,90.0,90.0,90.0
10057,F14Pb2Ta2,5.299,11,7.45192,5.010147,6.904845,85.9392,90.0,90.0
10058,Ag2In2S4,0.9226000000000001,122,7.11346,7.11346,7.11346,130.3423,130.3423,72.86009
10059,F2Nd2O2,3.8476,166,7.064504,7.064504,7.064504,33.04151,33.04151,33.04151
10060,Bi2O4Rb2,2.121,15,6.006163,6.006163,6.098713,67.46544,67.46544,93.62983
10061,F3In1Tc1,0.1582,221,4.587344,4.587344,4.587344,90.0,90.0,90.0
10062,Ca2O8W2,4.0975,88,6.87675,6.87675,6.87675,134.4076,134.4076,66.45203
10063,F24Pb8Zn4,4.501,138,5.678351,5.678351,16.24809,90.0,90.0,90.0
10064,Hf4Nd8S20,0.9138000000000001,62,7.389072,8.01134,11.60689,90.0,90.00214,90.0
10065,C2Mg2O6,4.9582,167,5.737767,5.737767,5.737767,48.24007,48.24007,48.24007
10066,Cd1Ga2S4,2.1856,82,6.516163,6.516163,6.516163,128.6158,128.6158,75.62954
10067,Cd2Cr4O8,2.4379,227,6.194816,6.194816,6.194816,60.0,60.0,60.0
10068,O14Tb4Ti4,3.2993,227,7.248974,7.248974,7.248974,60.0,60.0,60.0
10069,Ba1Co1F3,0.3106,221,5.066304,5.066304,5.066304,90.0,90.0,90.0
10070,Na1Nb1O3,1.8357,221,3.987737,3.987737,3.986317,90.0,90.0,90.04603
10071,C12H32S8,3.9683,14,11.23551,7.345344,8.230055,70.27057,90.0,90.0
10072,Cl4Ru2Te16,0.202,15,8.781948,8.781948,10.64149,77.8954,77.8954,115.8154
10073,Dy4O26Te10,2.9919000000000002,2,7.043466,8.795658,10.81421,89.60136,87.38511,74.94423
10074,K2O8Ru2,0.2038,88,7.80104,7.80104,7.80104,136.8181,136.8181,62.718
10075,C4H12Te4,1.5884,15,7.827958,7.827958,5.9647179999999995,75.26293,75.26293,69.90309
10076,As2Hg1O6,0.7112,162,4.955614,4.955581,5.109764,90.00082,89.99836,120.0002
10077,O14Sr2V6,2.0728,59,5.3719,5.607562,10.58865,90.0,90.0,90.0
10078,H4O8U2,2.9133,64,6.479126,6.479126,6.166205,90.0,90.0,135.8121
10079,C4O12Sr4,4.4409,62,5.171658,6.124706,8.497894,90.0,90.0,90.0
10080,K4O8Zn6,2.0864,15,8.08046,8.080454,5.6543019999999995,78.72299,78.71659,46.35043
10081,Cl6Rb2Sn1,2.2439999999999998,225,7.427534,7.427534,7.427534,60.0,60.0,60.0
10082,Ba1O3Ti1,2.1364,221,4.059953,4.059953,4.060223,90.0,90.0,90.0
10083,Ga16K16O32,3.1288,61,5.581234,11.18191,15.98911,90.0,90.0,90.0
10084,O14Pb2Ti6,2.3466,11,3.889137,6.706757,10.999410000000001,81.90902,90.0,90.0
10085,Ge2Mg2O6,2.4363,63,4.948931,4.948931,7.024037,90.0,90.0,146.5149
10086,F2H8N2,5.9618,186,4.451426,4.451426,7.188216,90.0,90.0,119.9986
10087,F20Mn4Na8,1.7088,14,5.323777,7.842608,11.04904,70.92435,90.0,90.0
10088,F6Hf1K2,6.8260000000000005,189,6.526319,6.526791,3.497144,90.0,90.0,119.9976
10089,Cd2I12Tl8,2.1871,128,9.408273,9.408273,9.905774,90.0,90.0,90.0
10090,Cu2In2Te4,0.2591,122,7.715236,7.715236,7.715236,131.9397,131.9397,70.32436
10091,Br4K4O16,3.0653,62,6.068011,7.691664,9.190378,90.0,90.0,90.0
10092,Co1S17U8,0.3321,12,7.985409,7.985409,10.61363,80.20464,80.20464,64.54138
10093,F2Pr2S2,1.2548,129,3.985165,3.985165,7.045713,90.0,90.0,90.0
10094,Ca8Fe8O20,0.6013000000000001,62,5.535772,5.657861,14.89187,90.0,90.0,90.0
10095,Mn4O10Sr4,0.1095,55,3.8642209999999997,5.624008,11.00362,90.0,90.0,90.0
10096,Ba2O6Te2,2.7604,11,6.058034,4.662917,7.244387,73.31117,90.0,90.0
10097,Cs16O12Zn4,1.7916,2,19.08565,7.133066,7.240594,63.98571,89.9279,90.06078
10098,Ca4Mn4O12,0.3866,62,5.331771,5.411836,7.568071,90.0,90.0,90.0
10099,F18Ge3Li6,5.98,150,8.563062,8.562876,4.692424,90.0002,89.99984,120.0014
10100,Br4Mo2O4,1.4022000000000001,9,8.39264,8.39264,7.797613,76.76114,76.76114,27.50579
10101,Cs4P4Si2,1.2709000000000001,72,8.73033,8.73033,8.73033,138.1815,127.7922,69.01887
10102,B4Li12S12,3.0372,62,6.197768,8.212548,10.12607,90.0,90.0,90.0
10103,C2Ca2O6,4.9973,167,6.464897,6.464897,6.464897,45.93375,45.93375,45.93375
10104,Cu6P2S8,1.3773,31,6.097646,6.369951,7.309061,90.0,90.0,90.0
10105,Al4K12Se12,2.3834,14,13.18611,8.150416,8.552128,78.98633,90.0,90.0
10106,F24O8Sb4,1.3621,206,8.795612,8.795612,8.795612,109.4712,109.4712,109.4712
10107,Bi4Fe8O18,1.3571,55,6.026436,7.952866,8.372044,90.0,90.0,90.0
10108,O8P2Sr3,5.4019,166,7.381889,7.381889,7.381889,43.4091,43.4091,43.4091
10109,Al2Cu2Se4,1.2714,122,6.845816,6.845816,6.845816,131.1576,131.1576,71.5628
10110,Cr4K4O14,2.5018000000000002,12,8.991649,8.991649,8.132408,81.07828,81.07828,41.03744