,full_formula,DebyeTemp,spacegroup.number,structure.lattice.a,structure.lattice.b,structure.lattice.c,structure.lattice.alpha,structure.lattice.beta,structure.lattice.gamma
2282,Mo2O4,568.385,136,4.7169989999999995,4.7169989999999995,3.234124,90.0,90.0,90.0
2283,Ce1Pb3,139.824,221,4.889158,4.889158,4.889158,90.0,90.0,90.0
2284,P2Ta2,335.509,141,5.810576,5.810576,5.810576,144.6447,144.6447,50.86439
2285,Er10Si6,306.544,193,8.359112,8.359128,6.284885,90.0,90.0,119.9999
2286,Sb2Zr4,233.736,139,8.508551,8.508551,8.508551,151.8307,151.8307,40.26053
2287,Bi8O12,160.515,227,8.076418,8.076418,8.076418,60.0,60.0,60.0
2288,Hg6Y2,138.556,194,6.655305,6.655042,5.012575,90.0,90.0,119.9987
2289,C1Cr1,608.617,225,2.978907,2.978907,2.978907,60.0,60.0,60.0
2290,Be2Pd6,258.228,63,4.972867,4.972867,7.706363,90.0,90.0,145.9792
2291,Dy2Sn4,224.156,63,8.568586,8.568586,4.40514,90.0,90.0,149.8225
2292,Sc2Te2,250.19,194,4.200602,4.200602,6.998556,90.0,90.0,120.0033
2293,Ga2Sc2,376.646,63,5.557068,5.557068,3.926709,90.0,90.0,136.5827
2294,N4Os4,503.398,36,6.47523,6.47523,4.836319,90.0,90.0,155.3125
2295,Eu1Te1,140.592,221,4.045579,4.045579,4.045579,90.0,90.0,90.0
2296,Fe4Hf2,303.38,227,5.105146,5.105146,5.105146,60.0,60.0,60.0
2297,Al3Er1,412.396,221,4.232334,4.232334,4.232334,90.0,90.0,90.0
2298,Co8Y12,234.407,58,3.743063,9.394235,12.3791,90.0,90.0,90.0
2299,Ba1Te1,154.23,221,4.26353,4.26353,4.26353,90.0,90.0,90.0
2300,Dy12Pt4,129.397,62,6.470318,7.001547,9.595274,90.0,90.0,90.0
2301,Br1K1,162.29,225,4.737082,4.737082,4.737082,60.0,60.0,60.0
2302,Ir1Li1,276.948,187,2.658821,2.658807,4.362145,90.0,90.0,120.0002
2303,N2Tc4,570.895,194,2.852011,2.852025,9.755209,90.0,90.0,120.0002
2304,B6Ho1,513.197,221,4.089599,4.089599,4.089599,90.0,90.0,90.0
2305,Ni2Ta1,346.747,139,4.520448,4.520448,4.520448,138.8966,138.8966,59.53263
2306,As1Na3,258.926,225,5.039987,5.039987,5.039987,60.0,60.0,60.0
2307,Ba2In4,190.525,74,6.680657,6.680657,6.680657,133.1965,99.26896,98.88362
2308,Cs1I1,83.7205,225,5.552608,5.552608,5.552608,60.0,60.0,60.0
2309,Ta4Zn8,372.314,194,5.033565,5.033565,8.088824,90.0,90.0,120.0003
2310,Pb3Tb1,93.5126,221,4.880922,4.880922,4.880922,90.0,90.0,90.0
2311,B2Pd4,312.218,58,3.131094,4.751671,5.174166,90.0,90.0,90.0
2312,As12Co4,438.045,204,7.14203,7.14203,7.14203,109.4712,109.4712,109.4712
2313,S12Tb8,301.261,62,3.893807,10.50454,10.71078,90.0,90.0,90.0
2314,As1Na1,305.818,123,2.996863,2.996863,4.5390429999999995,90.0,90.0,90.0
2315,Os1Si1,401.007,221,2.95039,2.95039,2.95039,90.0,90.0,90.0
2316,In16O24,399.315,206,8.919468,8.919468,8.919468,109.4712,109.4712,109.4712
2317,Ge4Mn4,227.73,198,5.234595,5.234595,5.234595,90.0,90.0,90.0
2318,Cd1O1,325.585,225,3.381923,3.381923,3.381923,60.0,60.0,60.0
2319,N4Os2,639.764,58,2.703325,4.147333,4.965368,90.0,90.0,90.0
2320,C3Nb4,599.946,221,4.469433,4.469433,4.469433,90.0,90.0,90.0
2321,Ca1Hg1,193.178,221,3.803157,3.803157,3.803157,90.0,90.0,90.0
2322,Dy1Tl3,106.09,221,4.760522,4.760522,4.760522,90.0,90.0,90.0
2323,Ce1Pt3,250.324,221,4.1618829999999996,4.1618829999999996,4.1618829999999996,90.0,90.0,90.0
2324,Li1Pd1,289.599,187,2.813637,2.813636,4.055575,90.0,90.0,120.0
2325,Mg4Si2,304.86,227,5.587261,5.587261,5.587261,60.0,60.0,60.0
2326,Ni2S2,380.457,194,3.530518,3.530518,5.646545,90.0,90.0,120.0041
2327,Al8Zr4,546.917,194,5.304087,5.304087,8.771867,90.0,90.0,120.0007
2328,Ru6Sn14,241.069,229,8.269872,8.269872,8.269872,109.4712,109.4712,109.4712
2329,B2Mg1,1018.41,191,3.072931,3.072931,3.535,90.0,90.0,119.9991
2330,Tb1Zn1,226.501,221,3.576008,3.576008,3.576008,90.0,90.0,90.0
2331,Hg1Pt1,176.145,123,3.0286939999999998,3.0286939999999998,3.8974029999999997,90.0,90.0,90.0
2332,As1Pu1,142.276,221,3.527409,3.527409,3.527409,90.0,90.0,90.0
2333,Mo8P5,497.823,6,3.220177,6.582338,9.51855,70.50925,90.0,90.0
2334,Al8Zr4,545.417,194,5.297921,5.297916,8.7891,90.0,90.0,120.0
2335,Cu4La4,160.995,62,4.6378889999999995,5.787021,7.608941,90.0,90.0,90.0
2336,Ni5U1,347.557,216,4.744787,4.744787,4.744787,60.0,60.0,60.0
2337,O4Ti2,536.509,141,5.561804,5.561804,5.561804,139.9855,139.9855,57.87532
2338,La1Zn1,219.141,221,3.773529,3.773529,3.773529,90.0,90.0,90.0
2339,Sn2Ti4,342.984,194,4.836575,4.836575,5.77972,90.0,90.0,119.9441
2340,Ag1Pt3,223.982,221,3.975599,3.975599,3.975599,90.0,90.0,90.0
2341,Pd8S2,250.016,114,5.158062,5.158062,5.681505,90.0,90.0,90.0
2342,Ge4O8,736.502,205,4.767313,4.767313,4.767313,90.0,90.0,90.0
2343,Cd1Tb1,181.515,221,3.756088,3.756088,3.756088,90.0,90.0,90.0
2344,Be26Ho2,909.446,226,7.187787,7.187787,7.187787,60.0,60.0,60.0
2345,As12Rh4,386.894,204,7.421067,7.421067,7.421067,109.4712,109.4712,109.4712
2346,Sb2Ta6,279.905,223,5.338491,5.338491,5.338491,90.0,90.0,90.0
2347,Pd3Ta1,322.844,139,4.89257,4.89257,4.89257,132.7785,132.7785,69.00229
2348,O1Ta4,267.413,123,3.290266,3.292981,7.44822,90.0,90.0,90.0
2349,S2Ti2,502.222,194,3.350488,3.350645,6.637349,90.0,90.0,119.9985
2350,Mg1Sc1,394.278,221,3.637054,3.637054,3.637054,90.0,90.0,90.0
2351,Pt3Y1,251.475,221,4.102057,4.102057,4.102057,90.0,90.0,90.0
2352,Ce1Rh3,334.283,221,4.065764,4.065764,4.065764,90.0,90.0,90.0
2353,B2Rh2,492.969,194,3.350177,3.350177,4.196672,90.0,90.0,120.1335
2354,Ca1Tl1,161.839,221,3.901492,3.901492,3.901492,90.0,90.0,90.0
2355,O8Si4,1158.43,60,5.079593,4.115694,4.525506,90.0,90.0,90.0
2356,Pt4Y2,271.801,227,5.413273,5.413273,5.413273,60.0,60.0,60.0
2357,Er1Tl1,155.907,123,3.544373,3.544373,4.248607,90.0,90.0,90.0
2358,Mg24Sb16,242.721,206,11.61773,11.61773,11.61773,109.4712,109.4712,109.4712
2359,K2S1,236.56,225,5.279128,5.279128,5.279128,60.0,60.0,60.0
2360,Al4Pt4,324.844,198,4.884753,4.884753,4.884753,90.0,90.0,90.0
2361,Pb1Pd3,239.281,221,4.096737,4.096737,4.096737,90.0,90.0,90.0
2362,Au6Sr14,120.262,186,11.1293,11.12919,7.180106,90.0,90.0,120.0003
2363,B4Re2,724.065,194,2.920133,2.920048,7.5095600000000005,90.0,90.0,120.001
2364,Dy8Sb6,207.303,220,7.963411,7.963411,7.963411,109.4712,109.4712,109.4712
2365,Ba6Mg23,252.616,225,10.75475,10.75475,10.75475,60.0,60.0,60.0
2366,Au4Ba4,131.592,62,5.033782,6.495577,8.39353,90.0,90.0,90.0
2367,Bi3Sr1,119.539,221,5.057306,5.057306,5.057306,90.0,90.0,90.0
2368,Nb3O3,639.106,221,4.232428,4.232428,4.232428,90.0,90.0,90.0
2369,Al2P2,528.631,186,3.885722,3.885722,6.379825,90.0,90.0,119.9946
2370,Tl3U1,132.98,221,4.843508,4.843508,4.843508,90.0,90.0,90.0
2371,Ca4Pt8,228.094,194,5.413982,5.413905,8.957402,90.0,90.0,120.0005
2372,Ir6W2,398.619,194,5.514107,5.514107,4.405965,90.0,90.0,120.0003
2373,O1Sr1,420.985,225,3.680597,3.680597,3.680597,60.0,60.0,60.0
2374,Nb1Rh3,471.155,221,3.887693,3.887693,3.887693,90.0,90.0,90.0
2375,Eu1S1,267.732,225,4.240715,4.240715,4.240715,60.0,60.0,60.0
2376,Ce1Te1,265.578,221,3.790884,3.790884,3.790884,90.0,90.0,90.0
2377,Mg2Sn1,311.794,225,4.829369,4.829369,4.829369,60.0,60.0,60.0
2378,Mg6P4,514.163,224,6.02239,6.02239,6.02239,90.0,90.0,90.0
2379,B12Tb1,1111.4,225,5.305242,5.305242,5.305242,60.0,60.0,60.0
2380,N4W2,656.666,194,2.950239,2.950261,7.805632,90.0,90.0,119.9998
2381,C1Mo1,687.409,225,3.107766,3.107766,3.107766,60.0,60.0,60.0
2382,As4Mg6,365.498,224,6.221189,6.221189,6.221189,90.0,90.0,90.0
2383,Ni4P12,568.664,204,6.8144279999999995,6.8144279999999995,6.8144279999999995,109.4712,109.4712,109.4712
2384,Au1Cu3,277.484,221,3.7708909999999998,3.7708909999999998,3.7708909999999998,90.0,90.0,90.0
2385,Ba2Be26,863.975,226,7.50361,7.50361,7.50361,60.0,60.0,60.0
2386,La1Mg1,235.054,221,3.97683,3.97683,3.97683,90.0,90.0,90.0
2387,Re3Ru1,418.8,44,5.230721,5.230721,5.230721,149.4577,125.1357,64.10204
2388,Rb2S1,162.103,225,5.535673,5.535673,5.535673,60.0,60.0,60.0
2389,Rb2Te1,119.013,225,6.081168,6.081168,6.081168,60.0,60.0,60.0
2390,N8Si6,1264.08,227,5.506317,5.506317,5.506317,60.0,60.0,60.0
2391,Ge2V6,369.767,223,4.815321,4.815321,4.815321,90.0,90.0,90.0
2392,As12Ir4,374.297,204,7.418516,7.418516,7.418516,109.4712,109.4712,109.4712
2393,Gd1N1,451.47,225,3.5406940000000002,3.5406940000000002,3.5406940000000002,60.0,60.0,60.0
2394,Ru2Te4,319.333,58,4.066474,5.353404,6.476007,90.0,90.0,90.0
2395,Er1S1,279.647,225,3.863434,3.863434,3.863434,60.0,60.0,60.0
2396,Cd3Zr1,218.295,123,4.424623,4.424623,4.37212,90.0,90.0,90.0
2397,P8Si4,642.825,205,5.74017,5.74017,5.74017,90.0,90.0,90.0
2398,Ir2N4,595.929,58,2.776064,4.077868,4.923028,90.0,90.0,90.0
2399,N1Ru1,402.559,216,3.226059,3.226059,3.226059,60.0,60.0,60.0
2400,Bi2Rb6,103.669,194,6.49982,6.499268,11.52944,90.0,90.0,120.0028
2401,C1Ni1,504.127,225,2.852236,2.852236,2.852236,60.0,60.0,60.0
2402,Ba2Tl4,141.598,194,5.359311,5.359311,8.6236,90.0,90.0,119.9994
2403,N1Zr1,450.305,221,2.855063,2.855063,2.855063,90.0,90.0,90.0
2404,Hf1Os1,334.988,221,3.253643,3.253643,3.253643,90.0,90.0,90.0
2405,Al4La2,357.873,227,5.788658,5.788658,5.788658,60.0,60.0,60.0
2406,Re1Si2,477.141,139,4.535273,4.535273,4.535273,138.7809,138.7809,59.70907
2407,Rh3Sc1,388.971,221,3.935234,3.935234,3.935234,90.0,90.0,90.0
2408,Cu1Pd1,271.513,221,3.014989,3.014989,3.014989,90.0,90.0,90.0
2409,S4Sr2,317.598,140,5.817938,5.817938,5.817938,116.2869,116.2869,96.56134
2410,Se8U6,187.923,220,7.802126,7.802126,7.802126,109.4712,109.4712,109.4712
2411,Re8W4,296.956,194,5.151711,5.151711,8.378084,90.0,90.0,120.0001
2412,C1Sc1,597.324,225,3.313286,3.313286,3.313286,60.0,60.0,60.0
2413,O8Zr4,546.884,14,5.259802,5.230459,5.431006,80.17452,90.0,90.0
2414,Ca4Sb2,280.302,139,9.034367,9.034367,9.034367,149.3124,149.3124,43.95169
2415,Al2Ti6,501.652,194,5.871644,5.871588,4.725951,90.0,90.0,120.0003
2416,Al2N2,905.541,194,3.312675,3.312675,4.18458,90.0,90.0,119.9996
2417,F4Zn2,428.691,136,4.678031,4.678031,3.080493,90.0,90.0,90.0
2418,Sr2Zn26,345.113,226,8.588993,8.588993,8.588993,60.0,60.0,60.0
2419,Ru6Th14,168.054,186,10.28028,10.28037,6.507135,90.0,90.0,119.9997
2420,Ge2Y2,351.282,63,5.794905,5.794905,3.968951,90.0,90.0,136.4433
2421,Dy1Hg2,173.01,191,4.9464500000000005,4.9464500000000005,3.42745,90.0,90.0,120.0007
2422,Dy5S7,285.851,12,6.702214,6.702214,11.60968,76.05663,76.05663,32.99638
2423,Li2O1,952.935,225,3.288764,3.288764,3.288764,60.0,60.0,60.0
2424,Na2S1,359.387,225,4.624479,4.624479,4.624479,60.0,60.0,60.0
2425,Bi1Nd1,182.78,225,4.607422,4.607422,4.607422,60.0,60.0,60.0
2426,Dy8Se12,240.965,62,4.028616,10.98441,11.16827,90.0,90.0,90.0
2427,Ba2Bi3,138.65,71,6.946603,6.946603,6.946603,138.945,109.9411,84.54102
2428,C2U1,380.165,225,3.846781,3.846781,3.846781,60.0,60.0,60.0
2429,N2Tl2,238.361,186,3.735742,3.735742,6.059486,90.0,90.0,119.9948
2430,Cu1Dy1,223.892,221,3.481993,3.481993,3.481993,90.0,90.0,90.0
2431,Al1Pd1,346.474,221,3.072102,3.072102,3.072102,90.0,90.0,90.0
2432,Al12Ni4,545.04,62,4.815157,6.548964,7.370589,90.0,90.0,90.0
2433,As1Gd1,280.799,225,4.175835,4.175835,4.175835,60.0,60.0,60.0
2434,Co2Y2,201.353,63,6.154719,6.154719,4.108257,90.0,90.0,144.059
2435,N4Ta2,436.018,191,5.490785,5.490785,2.8179,90.0,90.0,119.9972
2436,Pb4S4,221.015,31,4.247132,6.001574,8.482329,90.0,90.0,90.0
2437,B1Zr1,516.381,225,3.473431,3.473431,3.473431,60.0,60.0,60.0
2438,O1Rb2,155.506,225,4.864459,4.864459,4.864459,60.0,60.0,60.0
2439,Pd3V1,308.233,139,4.756711,4.756711,4.756711,132.0703,132.0703,70.11802
2440,Al4Er8,227.487,62,5.054256,6.503096,9.360508,90.0,90.0,90.0
2441,Al1Re2,402.113,139,5.262608,5.262608,5.262608,146.7584,146.7584,47.72168
2442,Pt1Sc1,242.588,221,3.323574,3.323574,3.323574,90.0,90.0,90.0
2443,Be2O2,1235.13,186,2.71088,2.710819,4.402724,90.0,90.0,120.0007
2444,Cu1Sc1,363.106,221,3.304992,3.304992,3.304992,90.0,90.0,90.0
2445,O5Ti5,692.878,12,5.114965,5.114965,5.863642,74.16645,74.16645,48.11385
2446,Ba10Sn6,154.607,140,10.80933,10.80933,10.80933,130.3224,130.3224,72.89185
2447,Ca6Ga10,324.477,63,5.840667,5.840667,15.01088,90.0,90.0,135.0472
2448,Cd3Te3,163.113,152,4.595322,4.587238,10.48756,90.00517,90.01819,120.0119
2449,Dy1Pd1,194.465,221,3.499029,3.499029,3.499029,90.0,90.0,90.0
2450,B2W2,519.197,63,4.560715,4.560715,3.123995,90.0,90.0,138.98
2451,Ag2Sc1,252.799,139,5.223965,5.223965,5.223965,139.8797,139.8797,58.03602
2452,Na6P2,346.662,194,4.934446,4.934446,8.783769,90.0,90.0,120.0039
2453,C4Mo8,582.118,60,4.756968,5.238558,6.074237,90.0,90.0,90.0
2454,O8Si4,487.508,24,8.369777,8.369777,8.369777,150.5501,147.4891,44.43259
2455,Ag4O2,55.3018,224,4.87957,4.87957,4.87957,90.0,90.0,90.0
2456,Ge2Ni4,316.282,194,3.989043,3.989043,5.029785,90.0,90.0,119.9981
2457,Se1U1,175.336,225,4.261302,4.261302,4.261302,60.0,60.0,60.0
2458,Ge3Pt6,189.676,189,6.7370719999999995,6.7370719999999995,3.563529,90.0,90.0,120.0021
2459,Pb2S2,205.646,194,4.151289,4.151289,7.333535,90.0,90.0,120.0034
2460,Er4Mg8,225.682,194,6.01718,6.01718,9.752581,90.0,90.0,120.006
2461,Cd2O2,225.13,186,3.672781,3.672781,5.805241,90.0,90.0,119.9947
2462,C8Cr12,766.139,62,2.791317,5.489039,11.4851,90.0,90.0,90.0
2463,Re4Si4,344.348,198,4.80528,4.80528,4.80528,90.0,90.0,90.0
2464,Co4Sb12,312.017,204,7.8701550000000005,7.8701550000000005,7.8701550000000005,109.4712,109.4712,109.4712
2465,Cd3Y1,216.411,225,5.080189,5.080189,5.080189,60.0,60.0,60.0
2466,Ag1Tb1,185.898,221,3.659183,3.659183,3.659183,90.0,90.0,90.0
2467,Sn6Tb10,242.581,193,9.041257,9.041175,6.621872,90.0,90.0,120.0003
2468,Ge4Tb2,213.615,141,8.772196,8.772196,8.772196,153.6713,153.6713,37.57754
2469,Fe4Si4,735.665,198,4.417673,4.417673,4.417673,90.0,90.0,90.0
2470,As2Nb2,414.018,109,6.395268,6.395268,6.395268,148.4012,148.4012,45.29339
2471,Cu4O2,156.024,224,4.289883,4.289883,4.289883,90.0,90.0,90.0
2472,Ho1Rh1,233.082,221,3.394509,3.394509,3.394509,90.0,90.0,90.0
2473,La6O9,327.238,12,7.716525,7.716525,9.337302,80.05825,80.05825,28.76988
2474,Te2Zn2,184.015,63,4.320152,4.320152,5.354565,90.0,90.0,99.81898
2475,O1Yb1,346.943,225,3.455854,3.455854,3.455854,60.0,60.0,60.0
2476,Os4Si4,346.671,198,4.776721,4.776721,4.776721,90.0,90.0,90.0
2477,As2Ni2,335.882,194,3.602448,3.602448,5.05183,90.0,90.0,120.0053
2478,Pb1Pt3,182.863,221,4.101439,4.101439,4.101439,90.0,90.0,90.0
2479,Ag2Er1,195.755,139,5.320921,5.320921,5.320921,139.1692,139.1692,59.11689
2480,Ho1P1,332.822,225,3.988083,3.988083,3.988083,60.0,60.0,60.0
2481,Fe2Zr4,177.569,140,5.507642,5.507642,5.507642,102.2008,102.2008,125.2625
2482,Hg2Ti6,386.378,223,5.289747,5.289747,5.289747,90.0,90.0,90.0
2483,Hf4O8,428.308,62,3.332474,5.557965,6.505517,90.0,90.0,90.0
2484,N2Tc2,430.828,131,2.8811869999999997,2.8811869999999997,5.8665389999999995,90.0,90.0,90.0
2485,Ga1Pt3,226.224,221,3.91967,3.91967,3.91967,90.0,90.0,90.0
2486,Al3Ru2,446.705,164,4.193696,4.193731,5.045577,89.99903,90.00001,119.9997
2487,Ir2O4,443.226,136,4.545756,4.545756,3.175479,90.0,90.0,90.0
2488,Cu1Ti3,369.69,123,4.502579,4.502579,3.446007,90.0,90.0,90.0
2489,Ru1Zr1,391.513,221,3.271899,3.271899,3.271899,90.0,90.0,90.0
2490,N1Re3,457.974,187,2.8445679999999998,2.844548,7.192692,90.0,90.0,120.0002
2491,Li2Te1,273.322,225,4.613544,4.613544,4.613544,60.0,60.0,60.0
2492,Ga14Ni6,357.363,229,7.279098,7.279098,7.279098,109.4712,109.4712,109.4712
2493,Ba1Zn1,178.152,221,4.108185,4.108185,4.108185,90.0,90.0,90.0
2494,H8W4,380.43,62,3.118493,5.114804,5.334423,90.0,90.0,90.0
2495,Al2Pd1,312.576,225,4.183339,4.183339,4.183339,60.0,60.0,60.0
2496,Au2Ca2,160.922,63,5.923964,5.923964,4.660531,90.0,90.0,140.6219
2497,Tc1Ti1,364.947,221,3.146959,3.146959,3.146959,90.0,90.0,90.0
2498,Co2Sb4,318.851,58,3.333535,5.64312,6.439819,90.0,90.0,90.0
2499,Si4Sr8,229.393,62,5.146069,8.125578,9.61647,90.0,90.0,90.0
2500,Ag1Y1,254.426,221,3.654002,3.654002,3.654002,90.0,90.0,90.0
2501,N2Rh2,530.117,194,3.03044,3.03044,5.189927,90.0,90.0,120.0028
2502,Sn2Ti4,346.506,194,4.835077,4.835077,5.779615,90.0,90.0,119.8721
2503,Ir2Sn2,250.277,194,4.02526,4.02557,5.6870519999999996,90.0,90.0,119.9975
2504,Au4Ti1,173.475,87,5.067381,5.067381,5.067381,99.25752,99.25752,132.7075
2505,Bi2Nb6,297.126,223,5.399917,5.399917,5.399917,90.0,90.0,90.0
2506,Ge6W10,290.481,140,7.463434,7.463434,7.463434,96.69362,96.69362,140.0745
2507,B6Sr1,846.236,221,4.1981,4.1981,4.1981,90.0,90.0,90.0
2508,Ba8Si4,161.096,62,5.423408,8.507616,10.20073,90.0,90.0,90.0
2509,C6N8,1226.21,227,4.796378,4.796378,4.796378,60.0,60.0,60.0
2510,Pd1Zn1,317.431,123,2.8900300000000003,2.8900300000000003,3.32829,90.0,90.0,90.0
2511,Hg1Sc1,215.278,221,3.557738,3.557738,3.557738,90.0,90.0,90.0
2512,N12Rh4,598.38,204,6.017187,6.017187,6.017187,109.4712,109.4712,109.4712
2513,Ho2S4,322.698,129,3.847325,3.847325,7.923398,90.0,90.0,90.0
2514,Be44Mo2,1235.79,227,8.184315,8.184315,8.184315,60.0,60.0,60.0
2515,In1Sc3,331.156,221,4.6063469999999995,4.6063469999999995,4.6063469999999995,90.0,90.0,90.0
2516,As16Mg4,270.224,92,5.472328,5.472328,16.08971,90.0,90.0,90.0
2517,Sb2Ti6,340.219,223,5.358016,5.358016,5.358016,90.0,90.0,90.0
2518,S1Y1,353.486,225,3.918323,3.918323,3.918323,60.0,60.0,60.0
2519,Ca1Te1,239.101,225,4.522656,4.522656,4.522656,60.0,60.0,60.0
2520,Mg24P16,463.423,206,10.44664,10.44664,10.44664,109.4712,109.4712,109.4712
2521,Er1Zn1,218.749,221,3.532,3.532,3.532,90.0,90.0,90.0
2522,C4Mg2,539.134,136,3.9457839999999997,3.9457839999999997,4.997626,90.0,90.0,90.0
2523,Dy1Ir3,315.528,221,4.024931,4.024931,4.024931,90.0,90.0,90.0
2524,Pt3Zr1,308.777,221,4.025162,4.025162,4.025162,90.0,90.0,90.0
2525,Ge2O4,696.172,136,4.483398,4.483398,2.912627,90.0,90.0,90.0
2526,Al6Ir2,323.67,194,4.278704,4.278704,7.764011,90.0,90.0,120.0017
2527,Ir1Y1,243.589,221,3.416708,3.416708,3.416708,90.0,90.0,90.0
2528,B6La1,728.596,221,4.169068,4.169068,4.169068,90.0,90.0,90.0
2529,Mg2Te2,230.58,194,4.231399,4.231399,6.877961,90.0,90.0,120.0009
2530,Mg1Tl1,89.9054,221,3.674804,3.674804,3.674804,90.0,90.0,90.0
2531,O10Ta4,491.349,47,3.7131309999999997,6.547136,7.807809,90.0,90.0,90.0
2532,Al2Zr4,370.027,194,4.909843,4.909843,5.940011,90.0,90.0,119.9969
2533,S8Zn8,350.877,156,3.79684,3.796848,24.85118,90.00005,90.0,119.9999
2534,Au1Er1,178.919,221,3.560437,3.560437,3.560437,90.0,90.0,90.0
2535,Tc1V1,509.307,221,3.046443,3.046443,3.046443,90.0,90.0,90.0
2536,C1Ta1,266.077,221,2.8177339999999997,2.8177339999999997,2.8177339999999997,90.0,90.0,90.0
2537,Cl1Cu1,208.463,216,3.838311,3.838311,3.838311,60.0,60.0,60.0
2538,Sb6Tl21,90.0082,229,10.29285,10.29285,10.29285,109.4712,109.4712,109.4712
2539,H1Rb1,198.212,225,4.253951,4.253951,4.253951,60.0,60.0,60.0
2540,B1C5,1919.59,44,4.467821,4.467821,4.467821,147.4517,130.5896,60.42422
2541,Pb1S1,150.413,221,3.653105,3.653105,3.653105,90.0,90.0,90.0
2542,Hg1Ti1,212.885,123,3.087094,3.087094,4.22193,90.0,90.0,90.0
2543,B6Ru4,710.024,194,2.911229,2.911229,12.83693,90.0,90.0,119.9977
2544,P8Sc12,512.186,62,3.7665189999999997,10.25777,10.33719,89.99772,90.0,90.0
2545,Hf2Hg1,211.96,139,6.3439,6.3439,6.3439,149.5113,149.5113,43.6593
2546,Cu2S1,269.643,225,3.930929,3.930929,3.930929,60.0,60.0,60.0
2547,La2O3,291.407,189,6.390977,6.390977,3.327793,89.9884,90.0116,120.0245
2548,Ga1P1,250.884,225,3.636577,3.636577,3.636577,60.0,60.0,60.0
2549,Si4Tc4,517.813,198,4.786018,4.786018,4.786018,90.0,90.0,90.0
2550,Al4La4,279.805,63,6.162023,6.162023,5.83511,90.0,90.0,101.6351
2551,P8Ru2,600.72,14,4.709458,4.72672,7.162586,80.60103,90.0,90.0
2552,C1Mo1,278.691,216,3.3312239999999997,3.3312239999999997,3.3312239999999997,60.0,60.0,60.0
2553,Ba1Te1,168.535,225,5.012264,5.012264,5.012264,60.0,60.0,60.0
2554,Cr1N1,368.96,216,3.243204,3.243204,3.243204,60.0,60.0,60.0
2555,Al4Th6,189.256,127,8.241196,8.241196,4.332821,90.0,90.0,90.0
2556,Ir4U2,279.77,227,5.353239,5.353239,5.353239,60.0,60.0,60.0
2557,Br1Cs1,118.528,221,4.390072,4.390072,4.390072,90.0,90.0,90.0
2558,O4Ru2,579.872,58,3.152364,4.522559,4.557049,90.0,90.0,90.0
2559,Pb1S1,151.927,187,4.072269,4.072205,3.769332,90.0,90.0,120.0005
2560,Re8Y4,217.5,194,5.443457,5.443457,8.858963,90.0,90.0,119.9996
2561,Hf1O2,482.696,225,3.5884229999999997,3.5884229999999997,3.5884229999999997,60.0,60.0,60.0
2562,Eu1Se1,174.811,221,3.775416,3.775416,3.775416,90.0,90.0,90.0
2563,B2Pt2,373.386,194,3.212628,3.212628,5.231377,90.0,90.0,119.9954
2564,C1Ta1,371.331,216,3.436597,3.436597,3.436597,60.0,60.0,60.0
2565,Ni1Si2,411.312,225,3.835428,3.835428,3.835428,60.0,60.0,60.0
2566,Au2Sn2,134.955,194,4.43605,4.436263,5.683972,90.0,90.0,119.9984