,full_formula,DebyeTemp,spacegroup.number,structure.lattice.a,structure.lattice.b,structure.lattice.c,structure.lattice.alpha,structure.lattice.beta,structure.lattice.gamma
576,Pb4Y2,181.111,63,8.641232,8.641232,4.542457,90.0,90.0,149.4709
577,Au8Nb12,259.81,213,7.131289,7.131289,7.131289,90.0,90.0,90.0
578,O2Sr1,418.106,139,4.228843,4.228843,4.228843,129.911,129.911,73.54906
579,Cd1Sr1,181.992,221,4.058344,4.058344,4.058344,90.0,90.0,90.0
580,Hg33Rb3,65.5605,221,10.32628,10.32628,10.32628,90.0,90.0,90.0
581,Cd2Tb1,207.347,191,4.970502,4.970502,3.449688,90.0,90.0,119.9986
582,Al1Tb3,214.579,221,4.777323,4.777323,4.777323,90.0,90.0,90.0
583,Ba2Cd4,119.845,74,6.616464,6.616464,6.616464,132.6613,100.7789,97.77695
584,Cd3In1,115.221,221,4.547859,4.547859,4.547859,90.0,90.0,90.0
585,Be44Re2,1085.56,227,8.136774,8.136774,8.136774,60.0,60.0,60.0
586,In2Y4,231.773,194,5.402064,5.402064,6.756464,90.0,90.0,119.9968
587,Al2Sc4,456.668,194,4.969705,4.969705,6.270132,90.0,90.0,119.9979
588,Si1U3,151.512,221,4.368762,4.368762,4.368762,90.0,90.0,90.0
589,P8Ti4,607.192,62,3.392186,6.277846,8.379401,90.0,90.0,90.0
590,Al4Th2,292.911,227,5.797245,5.797245,5.797245,60.0,60.0,60.0
591,Ag4Ba2,154.367,74,6.441983,6.441983,6.441983,133.9195,101.2714,96.36701
592,Be2Mo6,465.81,223,4.877168,4.877168,4.877168,90.0,90.0,90.0
593,Si2Zr4,464.942,140,5.390335,5.390335,5.390335,104.0693,104.0693,120.918
594,O6Rh4,521.451,167,5.578082,5.578082,5.578082,55.65078,55.65078,55.65078
595,N8W4,416.428,205,5.031986,5.031986,5.031986,90.0,90.0,90.0
596,Ho1Ir1,219.775,221,3.3920719999999998,3.3920719999999998,3.3920719999999998,90.0,90.0,90.0
597,Cs1I1,101.205,221,4.661956,4.661956,4.661956,90.0,90.0,90.0
598,N1Nb1,585.974,225,3.13866,3.13866,3.13866,60.0,60.0,60.0
599,Be2Zn26,272.631,226,8.540495,8.540495,8.540495,60.0,60.0,60.0
600,Sb4Th2,191.437,129,4.42742,4.42742,9.491985,90.0,90.0,90.0
601,O2Pt2,260.442,131,3.151331,3.151331,5.342036,90.0,90.0,90.0
602,O24Tl16,235.551,206,9.324296,9.324296,9.324296,109.4712,109.4712,109.4712
603,Ba6Sn10,171.249,63,7.232834,7.232834,11.37159,90.0,90.0,101.5903
604,Au2Gd2,131.857,63,5.870724,5.870724,4.735783,90.0,90.0,141.895
605,O4Ta2,488.368,136,5.024712,5.024712,2.899787,90.0,90.0,90.0
606,Co1O1,372.102,216,3.2792149999999998,3.2792149999999998,3.2792149999999998,60.0,60.0,60.0
607,Cs2S2,116.551,71,6.420224,6.420224,6.420224,131.737,109.8541,89.69417
608,Cl1Li1,380.102,225,3.646716,3.646716,3.646716,60.0,60.0,60.0
609,Ga2La1,325.838,191,4.338366,4.338366,4.442451,90.0,90.0,119.9985
610,La1Te1,174.773,225,4.608785,4.608785,4.608785,60.0,60.0,60.0
611,C1Ir1,345.767,216,3.251935,3.251935,3.251935,60.0,60.0,60.0
612,As12Ir4,374.297,204,7.418516,7.418516,7.418516,109.4712,109.4712,109.4712
613,Hf1Tc1,280.225,221,3.265778,3.265778,3.265778,90.0,90.0,90.0
614,Al8Ho12,241.841,136,8.199358,8.199358,7.561414,90.0,90.0,90.0
615,Pt2Si1,273.04,139,4.090006,4.090006,4.090006,122.4063,122.4063,85.88033
616,Al4Au8,187.534,62,3.249246,6.825426,9.047865,90.0,90.0,90.0
617,Re8Tb4,178.543,194,5.449653,5.449537,8.862338,90.0,90.0,120.0007
618,In3Yb1,184.786,221,4.713178,4.713178,4.713178,90.0,90.0,90.0
619,C1Pt1,304.373,187,3.004256,3.004256,2.868878,90.0,90.0,120.0006
620,Ge4Hf6,328.836,127,7.1612729999999996,7.1612729999999996,3.698433,90.0,90.0,90.0
621,Cd2Te2,159.625,63,4.327975,4.327975,6.09738,90.0,90.0,90.36625
622,N1Na1,396.495,225,3.547023,3.547023,3.547023,60.0,60.0,60.0
623,Pt3Sc1,278.829,221,4.006919,4.006919,4.006919,90.0,90.0,90.0
624,C1W1,464.068,225,3.10455,3.10455,3.10455,60.0,60.0,60.0
625,Cr1N1,835.069,225,3.013376,3.013376,3.013376,60.0,60.0,60.0
626,C1Tc1,419.845,225,3.089985,3.089985,3.089985,60.0,60.0,60.0
627,Er1Ga3,274.61,221,4.231754,4.231754,4.231754,90.0,90.0,90.0
628,O4Ti2,536.509,141,5.561804,5.561804,5.561804,139.9855,139.9855,57.87532
629,Ge4Ru4,400.918,198,4.880463,4.880463,4.880463,90.0,90.0,90.0
630,Hf6Rh10,287.509,55,4.283327,5.5832239999999995,10.81479,90.0,90.0,90.0
631,Ba2Si46,527.656,223,10.27563,10.27563,10.27563,90.0,90.0,90.0
632,Be5Co1,973.775,216,4.069983,4.069983,4.069983,60.0,60.0,60.0
633,Hf16Ir8,209.277,227,8.731812,8.731812,8.731812,60.0,60.0,60.0
634,H1Ni1,532.81,225,2.590868,2.590868,2.590868,60.0,60.0,60.0
635,F1Tl1,122.695,225,4.022944,4.022944,4.022944,120.1041,120.1041,89.81983
636,Mo2Rh6,443.809,194,5.511544,5.5115359999999995,4.3730139999999995,90.0,90.0,120.0
637,H4Mg2,764.91,136,4.483773,4.483773,2.996581,90.0,90.0,90.0
638,O24Sc16,651.635,206,8.585241,8.585241,8.585241,109.4712,109.4712,109.4712
639,C28V32,850.574,212,8.3882,8.3882,8.3882,90.0,90.0,90.0
640,Cd4O8,349.725,205,5.38479,5.38479,5.38479,90.0,90.0,90.0
641,Dy12Ru4,183.856,62,6.309578,7.260932,9.202501,90.0,90.0,90.0
642,As4Hf4,290.455,194,3.802742,3.802742,12.77535,90.0,90.0,120.0001
643,Ho1N1,474.851,225,3.450284,3.450284,3.450284,60.0,60.0,60.0
644,Er1H2,380.067,225,3.615518,3.615518,3.615518,60.0,60.0,60.0
645,Mn1S1,407.069,225,3.736024,3.736024,3.736024,60.0,60.0,60.0
646,Ag3Pt1,190.598,221,4.076796,4.076796,4.076796,90.0,90.0,90.0
647,Hf10Ir6,155.551,193,7.931729,7.931729,5.507462,90.0,90.0,119.9998
648,Rh5Y1,358.008,191,5.194635,5.194526,4.326001,90.0,90.0,120.0007
649,Ir4Pr2,286.201,227,5.358481,5.358481,5.358481,60.0,60.0,60.0
650,S2Ta1,206.729,164,3.397418,3.39741,6.455341,90.00108,90.0,120.0001
651,H8Sr4,364.775,62,3.846473,6.33543,7.278289,90.0,90.0,90.0
652,Al2Zr2,444.384,63,5.722012,5.722012,4.29519,90.0,90.0,145.8429
653,F3Mo1,396.394,221,4.174642,4.174642,4.174642,90.0,90.0,90.0
654,Ca1O1,640.398,225,3.422015,3.422015,3.422015,60.0,60.0,60.0
655,Si1Sn1,307.189,216,4.333117,4.333117,4.333117,60.0,60.0,60.0
656,Cd2Ho1,214.121,191,4.953212,4.953055,3.415665,90.0,90.0,120.001
657,Dy1P1,333.141,225,4.006948,4.006948,4.006948,60.0,60.0,60.0
658,Ga3Tb1,277.855,221,4.268359,4.268359,4.268359,90.0,90.0,90.0
659,Ca8Ge4,283.283,62,4.842902,7.665233,9.082409,90.0,90.0,90.0
660,B18Li2,1470.84,185,5.740505,5.740505,5.01895,90.0,90.0,120.0
661,Cd1Te1,176.135,225,4.319112,4.319112,4.319112,60.0,60.0,60.0
662,Fe2Se4,420.447,58,3.688859,4.847194,5.903699,90.0,90.0,90.0
663,Ir6W2,399.491,194,5.516744,5.516765,4.401534,90.0,90.0,119.9999
664,Br1Tl1,99.9075,225,4.780936,4.780936,4.780936,60.0,60.0,60.0
665,As14Re6,348.264,229,7.6753540000000005,7.6753540000000005,7.6753540000000005,109.4712,109.4712,109.4712
666,Ir6Nb6,327.291,51,2.8724439999999998,4.855149,13.80092,90.0,90.0,90.0
667,Y1Zn1,262.778,221,3.576588,3.576588,3.576588,90.0,90.0,90.0
668,P8Pa6,311.532,220,7.17098,7.17098,7.17098,109.4712,109.4712,109.4712
669,Au2Er1,191.5,139,5.189889,5.189889,5.189889,138.1821,138.1821,60.62415
670,B2Gd1,555.831,191,3.309242,3.309242,3.959178,90.0,90.0,120.0045
671,Sc4Tc8,248.28,194,5.274429,5.274429,8.672429,90.0,90.0,120.0002
672,F4Sn1,360.423,139,5.061075,5.061075,5.061075,130.723,130.723,72.25359
673,Mg4Te8,216.786,205,7.108423,7.108423,7.108423,90.0,90.0,90.0
674,Cl1Tl1,110.766,225,4.613506,4.613506,4.613506,60.0,60.0,60.0
675,Tb6Tl10,145.542,63,6.502151,6.502151,10.55276,90.0,90.0,102.3423
676,F1Na1,454.788,225,3.313301,3.313301,3.313301,60.0,60.0,60.0
677,Ba1O2,333.335,139,4.422676,4.422676,4.422676,128.1746,128.1746,76.34239
678,Ta1Tc1,394.287,221,3.207001,3.207001,3.207001,90.0,90.0,90.0
679,Co4Sb12,312.056,204,7.869872,7.869872,7.869872,109.4712,109.4712,109.4712
680,As2V6,520.184,223,4.778581,4.778581,4.778581,90.0,90.0,90.0
681,Ge6N8,738.16,227,5.882546,5.882546,5.882546,60.0,60.0,60.0
682,Ni3Sn1,366.401,221,3.715354,3.715354,3.715354,90.0,90.0,90.0
683,Cr2S2,337.95,15,3.612075,3.612075,6.445786,81.77308,81.77308,113.3932
684,Ho1S1,280.898,225,3.883757,3.883757,3.883757,60.0,60.0,60.0
685,N4Ta2,543.395,194,3.099427,3.099474,7.758016,90.0,90.0,119.9995
686,Mo6Zr2,204.856,223,5.221776,5.221776,5.221776,90.0,90.0,90.0
687,Si16Ti20,600.66,92,6.799736,6.799736,12.34041,90.0,90.0,90.0
688,Be24P16,782.912,206,8.830354,8.830354,8.830354,109.4712,109.4712,109.4712
689,Se1Zn1,263.39,216,4.012125,4.012125,4.012125,60.0,60.0,60.0
690,Al6Th2,307.989,194,6.589885,6.590076,4.643386,90.0,90.0,119.999
691,Pt2S2,225.585,131,3.532504,3.532504,6.116054,90.0,90.0,90.0
692,Al3Os2,447.934,139,7.454736,7.454736,7.454736,155.8287,155.8287,34.44694
693,Ni1Zn1,398.827,123,2.694953,2.694953,3.13332,90.0,90.0,90.0
694,Te12Th7,186.154,174,12.776250000000001,12.776250000000001,4.404115,90.0,90.0,120.0
695,N8Si6,937.279,176,7.661595,7.661607,2.9258129999999998,90.0,90.0,119.9984
696,Sc1Se1,308.64,225,3.923397,3.923397,3.923397,60.0,60.0,60.0
697,Cd1S1,209.377,216,4.181978,4.181978,4.181978,60.0,60.0,60.0
698,Al4Tb8,217.704,62,5.119508,6.578168,9.519855,90.0,90.0,90.0
699,N2Ta2,490.359,194,2.939022,2.939147,5.959373,90.0,90.0,119.9986
700,O1Sc1,627.202,225,3.221303,3.221303,3.221303,60.0,60.0,60.0
701,P4Zn6,365.797,224,5.632635,5.632635,5.632635,90.0,90.0,90.0
702,I1Na1,147.387,225,4.589319,4.589319,4.589319,60.0,60.0,60.0
703,Ir2Th2,158.552,63,5.999502,5.999502,4.416417,90.0,90.0,141.1892
704,Li3Pb1,246.029,225,4.736696,4.736696,4.736696,60.0,60.0,60.0
705,Er12Os4,189.142,62,6.252145,7.348225,8.951271,90.0,90.0,90.0
706,Hf2N4,364.147,194,3.260373,3.260373,7.599055,90.0,90.0,120.001
707,Au2Nb6,294.597,223,5.263695,5.263695,5.263695,90.0,90.0,90.0
708,Al10Ta20,268.45,136,9.984772,9.984772,5.458669,90.0,90.0,90.0
709,B12Sc1,1373.49,225,5.2512039999999995,5.2512039999999995,5.2512039999999995,60.0,60.0,60.0
710,C1Ru1,198.354,225,3.047631,3.047631,3.047631,60.0,60.0,60.0
711,Eu1Hg1,139.883,221,3.936371,3.936371,3.936371,90.0,90.0,90.0
712,As4Zn6,253.224,224,5.872391,5.872391,5.872391,90.0,90.0,90.0
713,N1Na3,331.307,221,4.715920000000001,4.715920000000001,4.715920000000001,90.0,90.0,90.0
714,Pu1Te1,186.637,221,3.795788,3.795788,3.795788,90.0,90.0,90.0
715,Ge6Ta10,351.422,140,7.719602,7.719602,7.719602,128.4673,128.4673,75.8692
716,Os2P4,540.436,58,2.948972,5.117797,5.9441749999999995,90.0,90.0,90.0
717,Pd6S2,258.372,63,4.616103,4.616103,6.289553,90.0,90.0,108.3253
718,Nb1Pd3,345.77,139,4.90776,4.90776,4.90776,132.9297,132.9297,68.76459
719,O8Ru4,653.334,205,4.902877,4.902877,4.902877,90.0,90.0,90.0
720,Pt6Y14,164.942,186,9.878043,9.878043,6.3152,90.0,90.0,119.9998
721,Cu4O2,145.354,224,4.288597,4.288597,4.288597,90.0,90.0,90.0
722,As1Te1,214.035,225,4.19725,4.19725,4.19725,60.0,60.0,60.0
723,Hg10Pd4,104.06,127,9.85732,9.85732,3.033409,90.0,90.0,90.0
724,Ba2Pt2,155.428,194,5.085902,5.085923,5.522877,90.0,90.0,119.9999
725,B12Er1,1090.41,225,5.286143,5.286143,5.286143,60.0,60.0,60.0
726,Mn1S1,518.977,221,2.809679,2.809679,2.809679,90.0,90.0,90.0
727,P1Rh2,399.457,225,3.901483,3.901483,3.901483,60.0,60.0,60.0
728,Ag1Li1,206.012,221,3.20644,3.20644,3.20644,90.0,90.0,90.0
729,Ca1N2,513.956,139,3.934924,3.934924,3.934924,125.1747,125.1747,81.24893
730,Cd1Ho1,189.574,221,3.727226,3.727226,3.727226,90.0,90.0,90.0
731,Al4Pd4,379.999,198,4.885873,4.885873,4.885873,90.0,90.0,90.0
732,Ho8S12,298.6,62,3.8532,10.44067,10.61011,90.0,90.0,90.0
733,O8Si4,1156.85,205,4.486775,4.486775,4.486775,90.0,90.0,90.0
734,Ir6Sn14,253.648,229,8.297108,8.297108,8.297108,109.4712,109.4712,109.4712
735,C60Rb6,332.559,204,10.15456,10.15456,10.15456,109.4712,109.4712,109.4712
736,Au2La2,115.135,63,6.092946,6.092946,4.908557,90.0,90.0,141.4709
737,Nb6Pt2,332.55,223,5.21019,5.21019,5.21019,90.0,90.0,90.0
738,Cu4Se8,240.407,205,6.17665,6.17665,6.17665,90.0,90.0,90.0
739,Bi1Dy1,186.727,225,4.466511,4.466511,4.466511,60.0,60.0,60.0
740,N1Nb1,718.85,221,2.753343,2.753343,2.753343,90.0,90.0,90.0
741,Au4Y8,174.407,62,4.9969,7.143018,8.957869,90.0,90.0,90.0
742,Cl1Tl1,114.28,221,3.896961,3.896961,3.896961,90.0,90.0,90.0
743,Cd2Er1,209.747,191,4.956979,4.956979,3.390409,90.0,90.0,119.9997
744,Co4P12,678.814,204,6.662252,6.662252,6.662252,109.4712,109.4712,109.4712
745,S8Zn8,356.915,186,3.798609,3.798532,24.82325,90.0,90.0,120.0007
746,B1C7,1988.28,25,2.514861,3.683446,5.124495,90.0,90.0,90.0
747,Re8Y4,218.006,194,5.443467,5.443359,8.852656,90.0,90.0,120.0007
748,Si4Th2,248.293,141,7.942222,7.942222,7.942222,149.3442,149.3442,43.90492
749,S1Zr1,377.676,225,3.710998,3.710998,3.710998,60.0,60.0,60.0
750,F6La2,290.295,59,4.117303,5.216638,5.203783,90.0,90.0,90.0
751,Co4P12,678.424,204,6.663036,6.663036,6.663036,109.4712,109.4712,109.4712
752,C1Th1,356.917,225,3.876223,3.876223,3.876223,60.0,60.0,60.0
753,Al1Dy1,260.927,221,3.599564,3.599564,3.599564,90.0,90.0,90.0
754,Pt6Sb4,165.345,72,6.950516,6.950516,6.950516,134.664,123.4963,75.23641
755,O2Sr1,414.103,139,4.246373,4.246373,4.246373,130.2546,130.2546,73.00014
756,Pt4Y8,187.204,62,4.793486,7.161545,8.793626,90.0,90.0,90.0
757,Si4Y2,275.09,141,7.886212,7.886212,7.886212,150.8383,150.8383,41.71227
758,Al6Zr2,568.338,139,9.110101,9.110101,9.110101,154.5455,154.5455,36.30727
759,H2La1,340.947,225,4.02321,4.02321,4.02321,60.0,60.0,60.0
760,Ca7Ge1,194.658,225,7.444074,7.444074,7.444074,60.0,60.0,60.0
761,N1Tc3,573.069,187,2.82611,2.82611,7.094093,90.0,90.0,119.9981
762,Al10W2,535.148,182,4.91536,4.915352,8.906438,90.0,90.0,120.0001
763,Ag8S4,168.035,19,4.249538,6.965577,7.713616,90.0,90.0,90.0
764,As6Sr6,243.007,189,8.353973,8.353973,6.227216,90.0,90.0,120.0
765,O4Si2,1135.58,136,4.23168,4.23168,2.693418,90.0,90.0,90.0
766,C10Si10,1142.37,156,3.094106,3.094097,25.30947,89.99998,90.0,120.0001
767,O2Zr1,598.445,225,3.6422470000000002,3.6422470000000002,3.6422470000000002,60.0,60.0,60.0
768,As1Pu1,230.086,225,4.1171,4.1171,4.1171,60.0,60.0,60.0
769,Au1Pd3,245.853,221,3.9881900000000003,3.9881900000000003,3.9881900000000003,90.0,90.0,90.0
770,Cd8Yb4,180.449,194,6.081274,6.081104,9.699393,90.0,90.0,120.0009
771,Tb1Te1,176.902,225,4.372147,4.372147,4.372147,60.0,60.0,60.0
772,Pd4Se8,181.419,61,5.787965,5.9340209999999995,8.244691,90.0,90.0,90.0
773,N4Pt2,560.613,58,3.183984,3.76115,4.85879,90.0,90.0,90.0
774,Hg4K2,81.1439,74,6.740306,6.740306,6.740306,133.1849,105.2048,93.05968
775,Ti2Zn1,431.561,139,5.798716,5.798716,5.798716,149.2262,149.2262,44.0784
776,Ho1Pd1,194.552,221,3.484806,3.484806,3.484806,90.0,90.0,90.0
777,Ca3Tl1,156.947,225,5.741964,5.741964,5.741964,60.0,60.0,60.0
778,S1Ta1,357.739,187,3.288795,3.288795,3.378896,90.0,90.0,119.9987
779,N2Y2,518.577,194,3.421741,3.421741,6.019204,90.0,90.0,120.0002
780,B2Ta1,609.575,191,3.106191,3.106191,3.370607,90.0,90.0,120.0002
781,As8In8,227.725,205,7.526571,7.526571,7.526571,90.0,90.0,90.0
782,Ge6Mo10,409.226,140,7.459717,7.459717,7.459717,96.51603,96.51603,140.6275
783,Be26Er2,904.036,226,7.177262,7.177262,7.177262,60.0,60.0,60.0
784,Au1Ho1,177.249,221,3.576161,3.576161,3.576161,90.0,90.0,90.0
785,Mg4Th2,228.609,227,6.1103439999999996,6.1103439999999996,6.1103439999999996,60.0,60.0,60.0
786,Au8Li30,214.235,220,9.385793,9.385793,9.385793,109.4712,109.4712,109.4712
787,Pt1V3,343.176,221,3.944271,3.944271,3.944271,90.0,90.0,90.0
788,Ir4La2,262.591,227,5.462861,5.462861,5.462861,60.0,60.0,60.0
789,O4Re2,514.019,136,4.944455,4.944455,2.756444,90.0,90.0,90.0
790,Ru4Y12,237.072,62,6.345277,7.315336,9.218312,90.0,90.0,90.0
791,Ag16Ca6,177.689,229,8.698203,8.698203,8.698203,109.4712,109.4712,109.4712
792,Ag1Sc1,269.074,221,3.47947,3.47947,3.47947,90.0,90.0,90.0
793,S4Si2,338.358,122,5.908305,5.908305,5.908305,123.3834,123.3834,84.23333
794,Cu1Pt7,251.065,225,5.541264,5.541264,5.541264,60.0,60.0,60.0
795,Yb3Zn11,223.693,71,8.240684,8.240684,8.240684,148.9098,114.156,74.59867
796,Gd1Te1,182.321,225,4.408809,4.408809,4.408809,60.0,60.0,60.0
797,As8Ni4,328.124,205,5.780394,5.780394,5.780394,90.0,90.0,90.0
798,Nb3O3,639.106,221,4.232428,4.232428,4.232428,90.0,90.0,90.0
799,Er4Mg8,226.631,194,6.012801,6.012504,9.76655,90.0,90.0,120.0016
800,Al3Sc1,568.132,221,4.149238,4.149238,4.149238,90.0,90.0,90.0
801,F1K1,276.697,221,3.26746,3.26746,3.26746,90.0,90.0,90.0
802,Ga1P1,423.45,216,3.883855,3.883855,3.883855,60.0,60.0,60.0
803,C2Dy1,316.922,139,4.044916,4.044916,4.044916,126.0462,126.0462,79.81219
804,Dy1Sn3,136.798,221,4.767001,4.767001,4.767001,90.0,90.0,90.0
805,Tb4Tl2,160.429,194,5.431273,5.431273,6.750734,90.0,90.0,119.9977
806,Au1Cs1,97.1262,221,4.328193,4.328193,4.328193,90.0,90.0,90.0
807,Al1Y1,333.644,221,3.610451,3.610451,3.610451,90.0,90.0,90.0
808,Cr1Te1,58.6202,216,4.48168,4.48168,4.48168,60.0,60.0,60.0
809,Li6P2,652.878,194,4.23891,4.238966,7.573066,90.0,90.0,119.9996
810,B8Fe2,1055.91,58,2.874378,4.705796,5.448757,90.0,90.0,90.0
811,Na2Se1,267.935,225,4.8171669999999995,4.8171669999999995,4.8171669999999995,60.0,60.0,60.0
812,O4Ru2,543.196,136,4.545617,4.545617,3.136816,90.0,90.0,90.0
813,Nd1Pt3,208.632,221,4.186643,4.186643,4.186643,90.0,90.0,90.0
814,Nb6Si2,402.113,223,5.144475,5.144475,5.144475,90.0,90.0,90.0
815,Al4Y2,472.956,227,5.569258,5.569258,5.569258,60.0,60.0,60.0
816,B2Fe1,755.143,191,3.008619,3.008655,3.278226,90.0,90.0,119.9996
817,Al1Pt1,243.444,221,3.070192,3.070192,3.070192,90.0,90.0,90.0
818,N2Os1,443.27,187,3.038364,3.03842,3.796652,90.0,90.0,119.9994
819,Be4Nb6,464.57,127,6.549396,6.549396,3.38539,90.0,90.0,90.0
820,Ba1S1,244.594,225,4.566411,4.566411,4.566411,60.0,60.0,60.0
821,C1Pt1,192.507,216,3.328014,3.328014,3.328014,60.0,60.0,60.0
822,Mn1Ni3,353.754,221,3.614297,3.614297,3.614297,90.0,90.0,90.0
823,Ru4S8,575.977,205,5.678313,5.678313,5.678313,90.0,90.0,90.0
824,Al3Zr1,454.914,221,4.108855,4.108855,4.108855,90.0,90.0,90.0
825,Dy2Pt4,251.598,227,5.404222,5.404222,5.404222,60.0,60.0,60.0
826,Rh4Te8,272.968,205,6.519602,6.519602,6.519602,90.0,90.0,90.0
827,S8Zr6,223.073,227,7.624442,7.624442,7.624442,60.0,60.0,60.0
828,Br8Cu8,180.744,205,6.959473,6.959473,6.959473,90.0,90.0,90.0
829,Ni2Zr4,186.771,140,5.279898,5.279898,5.279898,104.3107,104.3107,120.3738
830,Ho4Mg8,207.845,194,6.030684,6.030335,9.775683,90.0,90.0,120.0019
831,F4Nb1,360.503,139,5.325656,5.325656,5.325656,133.9301,133.9301,67.19721
832,Dy1H2,388.194,225,3.668171,3.668171,3.668171,60.0,60.0,60.0
833,Al2Y2,339.463,63,6.116927,6.116927,4.417465,90.0,90.0,143.4781
834,Hf1Pd3,302.092,221,3.993649,3.993649,3.993649,90.0,90.0,90.0
835,Al8Er12,247.123,136,8.162637,8.162637,7.5333749999999995,90.0,90.0,90.0
836,Er1Mg1,222.117,221,3.764693,3.764693,3.764693,90.0,90.0,90.0
837,Pb3U1,143.212,221,4.896649,4.896649,4.896649,90.0,90.0,90.0
838,O24Y16,467.466,206,9.268551,9.268551,9.268551,109.4712,109.4712,109.4712
839,Dy4Tl2,161.1,194,5.408513,5.408513,6.712164,90.0,90.0,119.9963
840,Nb3O3,641.996,221,4.252408,4.252408,4.252408,90.0,90.0,90.0
841,B2N2,1895.28,186,2.555175,2.555175,4.224369,90.0,90.0,119.9986
842,In2Pt1,170.976,225,4.536836,4.536836,4.536836,60.0,60.0,60.0
843,Bi2Rh2,191.766,194,4.140882,4.140882,5.72642,90.0,90.0,120.0037
844,Au1Rb1,109.867,221,4.156716,4.156716,4.156716,90.0,90.0,90.0
845,Re8Zr4,239.545,194,5.319769,5.319769,8.700589,90.0,90.0,119.998
846,Ba4Si8,312.66,212,6.768988,6.768988,6.768988,90.0,90.0,90.0
847,Cd2Se2,173.812,186,4.373757,4.373757,7.132845,90.0,90.0,119.994
848,Pb4Pt2,126.857,140,5.763625,5.763625,5.763625,104.8966,104.8966,119.068
849,Ir2O4,442.455,136,4.5436440000000005,4.5436440000000005,3.190912,90.0,90.0,90.0
850,Al8Zr4,547.04,194,5.303946,5.303946,8.772735,90.0,90.0,120.0003
851,Se8Th4,185.217,62,4.533291,7.778704,9.337932,90.0,90.0,90.0
852,P4W12,327.657,82,7.438133,7.438133,7.438133,96.17074,96.17074,141.7222
853,Be6F12,462.44,217,7.331849,7.331849,7.331849,109.4712,109.4712,109.4712
854,Se1Sn1,238.066,225,4.317843,4.317843,4.317843,60.0,60.0,60.0
855,Ge6Ta10,331.221,140,7.689683,7.689683,7.689683,96.66465,96.66465,140.1643
856,Rh9S12,434.46,12,7.546989,7.546989,6.327647,77.55377,77.55377,91.96944
857,B6Gd1,575.311,221,4.108095,4.108095,4.108095,90.0,90.0,90.0
858,O4Ti2,776.075,136,4.674853,4.674853,3.024909,90.0,90.0,90.0
859,Mg1Y1,280.826,221,3.801606,3.801606,3.801606,90.0,90.0,90.0
860,Nb1Ru1,200.457,221,3.190011,3.190011,3.190011,90.0,90.0,90.0
861,H2Nb1,575.493,225,3.233034,3.233034,3.233034,60.0,60.0,60.0
862,N3V2,908.718,164,2.857718,2.85774,6.273708,89.99996,90.0,119.9998
863,Ba2Te4,158.607,140,6.86342,6.86342,6.86342,116.3379,116.3379,96.46936
864,O2Sr1,414.103,139,4.246373,4.246373,4.246373,130.2546,130.2546,73.00014