,full_formula,band_gap,spacegroup.number,structure.lattice.a,structure.lattice.b,structure.lattice.c,structure.lattice.alpha,structure.lattice.beta,structure.lattice.gamma
6389,Nb2O5,2.0802,5,4.029057,4.029057,5.842751,68.53731,68.53731,80.62704
6390,In12Se18,0.49110000000000004,170,7.261674,7.261674,20.49276,90.0,90.0,120.0
6391,N10Ta6,1.4434,63,5.536088,5.536088,10.39111,90.0,90.0,138.3385
6392,Fe12S12,0.868,40,6.279112,6.342935,11.87454,90.0,90.0,119.6677
6393,Pd4S8,0.669,61,5.510079,5.593567,8.20184,90.0,90.0,90.0
6394,N3Na1,4.0345,160,5.545074,5.545074,5.545074,38.91012,38.91012,38.91012
6395,Te20U4,0.5524,62,4.339594,10.27959,19.17791,90.0,90.0,90.0
6396,Ba1Se1,1.9497,225,4.7284109999999995,4.7284109999999995,4.7284109999999995,60.0,60.0,60.0
6397,O6Si3,5.7216000000000005,154,4.964546,4.965057,5.461531,89.99681,89.99702,120.0002
6398,O2Pt1,2.0533,164,3.139847,3.139871,4.762313,89.99954,90.0,119.9997
6399,Al1As1,1.5011,216,4.054028,4.054028,4.054028,60.0,60.0,60.0
6400,Cr4O6,2.373,167,5.450246,5.450246,5.450246,55.67487,55.67487,55.67487
6401,Se12Tb8,0.3442,62,4.049623,11.01119,11.21686,90.0,90.0,90.0
6402,As4F12,5.158,33,5.475387,8.803756,7.231528,90.0,90.0,90.0
6403,O24Yb16,0.4025,206,8.996064,8.996064,8.996064,109.4712,109.4712,109.4712
6404,Cl6Mo2,0.7308,12,5.797423,5.797423,6.861301,81.61278,81.61278,114.8697
6405,Al2N2,4.0551,186,3.129329,3.129308,5.01559,90.0,90.0,119.9998
6406,Br36Pt12,0.997,148,13.6882,13.6882,13.6882,115.1268,115.1268,115.1268
6407,O6Si3,5.5349,180,5.102259,5.102096,5.594238,90.0,90.0,120.0037
6408,Ni2S2,0.199,194,3.528928,3.528857,5.648354,90.0,90.0,120.0007
6409,I20Nb4,0.7467,14,6.612211,11.06928,15.14152,70.22169,90.0,90.0
6410,O8Si4,5.5471,92,5.038728,5.038728,7.014318,90.0,90.0,90.0
6411,B4N4,1.5663,8,2.511923,4.395094,6.670407,90.64591,100.8344,89.99779
6412,Ag8S4,0.5335,14,7.054655,4.319783,7.946825,79.4835,90.0,90.0
6413,La2O3,3.7707,164,3.987082,3.987082,6.235422,89.99702,90.00298,119.9953
6414,Au4O6,1.0319,43,8.390117,6.790311,5.681828,84.05097,53.60678,42.34225
6415,In12Se18,1.071,169,7.315913,7.314699,19.66453,90.00056,90.00046,120.0063
6416,N16Se16,0.8037000000000001,14,9.786691,9.150615,13.1715,90.07322,90.0,90.0
6417,O16Te8,2.2295,61,5.635937,5.739016,12.18059,90.0,90.0,90.0
6418,Al2N2,4.0727,186,3.125169,3.125528,5.024145,90.0,90.0,119.9962
6419,S4Sr2,1.2788,140,5.817938,5.817938,5.817938,116.2869,116.2869,96.56134
6420,Hf4O8,4.0148,14,5.202608,5.137292,5.31182,80.4062,90.0,90.0
6421,Mo2O6,1.8316,11,3.741071,3.953524,7.535573,76.69536,90.0,90.0
6422,Ce1O2,2.4183,225,3.885099,3.885099,3.885099,60.0,60.0,60.0
6423,Ge32K32,0.9403,218,12.84662,12.84662,12.84662,90.0,90.0,90.0
6424,Ge4S4,1.208,62,3.643411,4.433604,10.96398,90.0,90.0,90.0
6425,I8Pd4,1.1884000000000001,14,9.01467,6.909426,7.089904,76.66441,90.0,90.0
6426,Br6Ce2,1.6066,176,8.271626,8.271626,9.143714,90.0,90.0,120.0
6427,O8Zr4,3.5639000000000003,14,5.259802,5.230459,5.431006,80.17452,90.0,90.0
6428,As8Cd8,0.1588,61,6.066614,7.946302,8.168893,90.0,90.0,90.0
6429,Be2O2,7.456,186,2.710667,2.7106,4.4030000000000005,90.0,90.0,120.0008
6430,Cd12I24,2.3787000000000003,156,4.313811,4.313782,87.06734,90.00213,90.0,120.0002
6431,As8Rh4,0.2154,14,6.155208,6.128634,6.215872,65.24777,90.0,90.0
6432,Ce1O2,2.4183,225,3.885096,3.885096,3.885096,60.0,60.0,60.0
6433,Cl4O12,1.1918,9,5.40074,5.40074,10.34255,82.03785,82.03785,115.133
6434,H4Mg2,3.7372,136,4.485555,4.485555,2.999259,90.0,90.0,90.0
6435,O4V2,0.7303000000000001,136,4.510794,4.510794,3.032031,90.0,90.0,90.0
6436,S2Sn1,1.3566,164,3.743533,3.743533,6.690321,90.00321,89.99679,120.0028
6437,Na4S4,1.245,194,4.494723,4.494547,10.2265,90.0,90.0,120.0013
6438,Al2N2,3.2727,194,3.312675,3.312675,4.18458,90.0,90.0,119.9996
6439,O8Si4,5.5227,92,5.066705,5.066705,7.078305,90.0,90.0,90.0
6440,Cl2V1,2.8002000000000002,164,3.691475,3.691475,6.028793,89.99938,90.00062,120.0026
6441,F4Zn2,4.9519,136,4.678031,4.678031,3.080493,90.0,90.0,90.0
6442,Se8U4,0.1044,62,4.304363,7.589384,9.091538,90.0,90.0,90.0
6443,O8Zr4,3.4815,14,5.279284,5.225153,5.403047,80.24187,90.0,90.0
6444,O14Ti8,0.2669,2,5.746104,7.039994,7.362418,62.30327,70.90417,75.31193
6445,As8S8,2.0901,15,7.390582,7.390582,9.483308,81.36974,81.36974,85.96921
6446,O10V4,1.6520000000000001,11,3.615776,6.362569,7.485766,90.1145,90.0,90.0
6447,S18Zn18,2.6883,156,3.798354,3.7983729999999998,55.85924,90.00001,90.0,119.9998
6448,N8Si6,4.2474,176,7.659454,7.659395,2.924816,90.0,90.0,119.9995
6449,S12Sb8,1.2824,62,3.869817,11.23502,12.16009,90.0,90.0,90.0
6450,B4N4,1.5636999999999999,8,6.67492,6.67492,4.3981069999999995,89.46743,89.46743,21.68967
6451,As8Na8,0.5551,19,5.977182,6.265645,10.55515,90.0,90.0,90.0
6452,I4Sn1,1.4851,215,6.859379,6.859379,6.859379,90.0,90.0,90.0
6453,S2Ti1,0.5346000000000001,164,3.4749879999999997,3.474934,6.190807,90.00125,90.0,120.0005
6454,Se4Sn4,0.6575000000000001,62,4.259748,4.572744,11.96379,90.0,90.0,90.0
6455,O4Ti2,2.2651,136,4.676304,4.676304,3.025435,90.0,90.0,90.0
6456,Li3N1,0.979,191,3.652388,3.652388,3.892461,90.0,90.0,119.9964
6457,Cl16Ga8,3.8059000000000003,52,7.203442,9.768152,9.77154,90.0,90.0,90.0
6458,S12Sb8,1.2811,62,3.869886,12.15515,11.23275,90.0,90.0,90.0
6459,N8Si6,4.241,176,7.660204,7.660172,2.925817,90.0,90.0,119.9995
6460,Rb2Te1,1.8934000000000002,225,6.077981,6.077981,6.077981,60.0,60.0,60.0
6461,As8Eu6,0.2822,43,11.61511,9.422408,7.984928,83.27156,53.67143,43.05701
6462,S12Sb8,1.2866,62,3.873934,11.26079,12.11746,90.0,90.0,90.0
6463,Li2O1,4.9039,225,3.288764,3.288764,3.288764,60.0,60.0,60.0
6464,S18Zn18,2.6882,156,3.798397,3.798372,55.85791,90.00003,90.0,120.0002
6465,Mg4O8,3.7283,205,4.8973949999999995,4.8973949999999995,4.8973949999999995,90.0,90.0,90.0
6466,Al1As1,1.5011,216,4.054028,4.054028,4.054028,60.0,60.0,60.0
6467,Cl4Cr2,2.1719,58,3.545876,6.221043,6.81585,90.0,90.0,90.0
6468,Ag4O2,0.0857,224,4.882056,4.882056,4.882056,90.0,90.0,90.0
6469,Na2S1,2.4848,225,4.624479,4.624479,4.624479,60.0,60.0,60.0
6470,Se6U2,1.1762,11,4.131141,5.758762,10.25101,83.27731,90.0,90.0
6471,Ge6N8,1.8107000000000002,176,8.131311,8.13121,3.113352,90.0,90.0,120.0007
6472,Bi2Se3,0.3512,166,10.14519,10.14519,10.14519,23.8775,23.8775,23.8775
6473,Te1Zn1,1.4763,216,4.341568,4.341568,4.341568,60.0,60.0,60.0
6474,O2Zn2,1.8089,186,3.193606,3.193386,5.151037,90.0,90.0,120.0023
6475,O24Y16,4.0608,206,9.267046,9.267046,9.267046,109.4712,109.4712,109.4712
6476,Cd14I28,2.2257,156,4.313233,4.313217,102.164,89.99957,90.0,120.0004
6477,Dy8Se12,0.3643,62,4.028616,10.98441,11.16827,90.0,90.0,90.0
6478,Cl1Na1,4.0148,221,3.489966,3.489966,3.489966,90.0,90.0,90.0
6479,O2Zn2,1.8285,186,3.199049,3.19927,5.122151,90.0,90.0,120.0023
6480,Se4Ti4,0.709,166,13.31874,13.31874,13.31874,17.01986,17.01986,17.01986
6481,I2In2,1.3007,63,6.898627,6.898627,4.923355,90.0,90.0,138.9739
6482,Cr4O6,2.3714,167,5.45474,5.45474,5.45474,55.61698,55.61698,55.61698
6483,O4Ti2,2.2614,136,4.671146,4.671146,3.024382,90.0,90.0,90.0
6484,O4Ti2,2.267,136,4.671881,4.671881,3.023427,90.0,90.0,90.0
6485,O8V4,0.6847000000000001,14,4.511553,5.436864,5.436224,67.78017,90.0,90.0
6486,F18La6,7.6946,165,7.300011,7.300005,7.466631,89.99944,90.00061,120.0007
6487,Cd1Te1,0.7091000000000001,216,4.66797,4.66797,4.66797,60.0,60.0,60.0
6488,F18S3,5.8619,12,8.363127,8.363127,4.956765,85.27858,85.27858,60.99463
6489,Fe2Se2,0.5908,67,4.418859,4.418859,5.561213,90.0,90.0,90.46732
6490,O16Pb12,1.1267,135,9.030794,9.030794,6.777708,90.0,90.0,90.0
6491,Rb8Te4,1.7116,62,5.620693,9.177772,11.11297,90.0,90.0,90.0
6492,Ge3O6,3.1546,152,5.067084,5.067084,5.758717,90.0,90.0,120.0
6493,O6Si3,5.7104,154,4.984203,4.982889,5.476941,89.99994,89.99961,120.0009
6494,Cl1Na1,5.0577,225,4.005324,4.005324,4.005324,60.0,60.0,60.0
6495,H4Sr2,1.3014999999999999,194,4.115311,4.115311,5.650545,90.0,90.0,119.9979
6496,Cr2F6,2.6912000000000003,167,5.381739,5.381739,5.381739,56.58906,56.58906,56.58906
6497,O4Ti2,2.26,136,4.67401,4.67401,3.024956,90.0,90.0,90.0
6498,H1Li1,2.9618,225,2.825831,2.825831,2.825831,60.0,60.0,60.0
6499,O6Si3,5.5395,180,5.100966,5.100966,5.591647,90.0,90.0,120.0
6500,Pb4S4,0.45420000000000005,31,4.247132,6.001574,8.482329,90.0,90.0,90.0
6501,Hg3S3,1.5521,154,4.394107,4.394585,9.660204,90.01216,90.00118,120.0
6502,Te10Zr2,0.056900000000000006,63,8.007967,8.007967,13.85118,90.0,90.0,150.6841
6503,Pb1S1,0.4647,225,4.245949,4.245949,4.245949,60.0,60.0,60.0
6504,Ag2I2,2.0035,186,4.703692,4.703692,7.670034,90.0,90.0,119.9942
6505,Ca1Se1,2.0765,225,4.217541,4.217541,4.217541,60.0,60.0,60.0
6506,Ge1Te1,0.5289,160,4.288377,4.288377,4.288377,59.74776,59.74776,59.74776
6507,O1Sr1,2.7438000000000002,221,3.139831,3.139831,3.139831,90.0,90.0,90.0
6508,O1Rb2,1.3159,225,4.864459,4.864459,4.864459,60.0,60.0,60.0
6509,O4Ti2,2.2663,136,4.673338,4.673338,3.022984,90.0,90.0,90.0
6510,Ca1F2,7.1315,225,3.8971,3.8971,3.8971,60.0,60.0,60.0
6511,Gd16O24,3.6189,206,9.420272,9.420272,9.420272,109.4712,109.4712,109.4712
6512,F18La6,7.6951,165,7.297378,7.297354,7.468221,90.00052,89.99996,120.0006
6513,Eu1O1,0.2679,225,3.6590100000000003,3.6590100000000003,3.6590100000000003,60.0,60.0,60.0
6514,S1Yb1,1.1454,225,4.029114,4.029114,4.029114,60.0,60.0,60.0
6515,Cd11I22,2.3749000000000002,156,4.312472,4.312443,80.18008,89.99959,90.00001,120.0004
6516,O12W4,1.197,113,7.675764,7.675764,3.921286,90.0,90.0,90.0
6517,Be2O2,7.4494,186,2.71088,2.710819,4.402724,90.0,90.0,120.0007
6518,Ba2N12,3.8241,11,4.46023,5.503957,9.736815,80.53909,90.0,90.0
6519,S18Zn18,2.6875,156,3.7984679999999997,3.798443,55.8571,89.99998,90.0,120.0002
6520,O24Yb16,0.3956,206,9.001594,9.001594,9.001594,109.4712,109.4712,109.4712
6521,O6Si3,5.7249,154,4.9753229999999995,4.975248,5.473008,90.00071,89.99967,120.0018
6522,S1Zn1,2.6765,216,3.798474,3.798474,3.798474,60.0,60.0,60.0
6523,Cr4O6,2.3749000000000002,167,5.450099,5.450099,5.450099,55.65481,55.65481,55.65481
6524,O24Y16,4.0531,206,9.266644,9.266644,9.266644,109.4712,109.4712,109.4712
6525,O4Ti2,2.265,136,4.671975,4.671975,3.023885,90.0,90.0,90.0
6526,Br2Mg1,4.479,164,3.878203,3.878195,7.096817,90.00119,90.0,120.0001
6527,Se1Zn1,1.699,216,4.010299,4.010299,4.010299,60.0,60.0,60.0
6528,O8Ti4,3.1172,12,6.514435,6.514435,6.6339559999999995,73.856,73.856,34.26719
6529,Mg2Si1,0.23650000000000002,225,4.492435,4.492435,4.492435,60.0,60.0,60.0
6530,O4Ti2,2.2687,136,4.671212,4.671212,3.023777,90.0,90.0,90.0
6531,Sb2Te3,0.1202,166,10.69622,10.69622,10.69622,23.40833,23.40833,23.40833
6532,O8Zr4,3.4668,14,5.28681,5.216358,5.398015,80.38093,90.0,90.0
6533,Cd3Te3,0.2049,152,4.595322,4.587238,10.48756,90.00517,90.01819,120.0119
6534,O12Sb8,2.224,56,5.196959,5.513395,12.61657,90.0,90.0,90.0
6535,S1Zn1,2.6725,216,3.799437,3.799437,3.799437,60.0,60.0,60.0
6536,O4Ti2,2.5722,141,5.592094,5.592094,5.592094,139.6367,139.6367,58.40536
6537,N12S10,2.2894,15,7.627241,7.627241,7.864331,80.27517,80.27517,102.4447
6538,Co6O8,0.3274,227,5.975748,5.975748,5.975748,60.0,60.0,60.0
6539,Mn1Se1,0.39840000000000003,225,3.915342,3.915342,3.915342,60.0,60.0,60.0
6540,N16Si12,4.6614,159,7.806787,7.806787,5.660385,89.99999,89.99999,119.9997
6541,Eu1Te1,0.8305,225,4.705415,4.705415,4.705415,60.0,60.0,60.0
6542,F24Th6,6.2568,15,8.936254,8.936254,8.935567,63.12917,63.12917,80.37393
6543,S2Sn1,1.3631,164,3.750393,3.750447,6.499375,90.00385,90.0,119.9995
6544,Cd8I16,2.3845,156,4.315901,4.315876,58.08327,90.0013,90.0,120.0002
6545,Se1Yb1,1.3277,225,4.225846,4.225846,4.225846,60.0,60.0,60.0
6546,Hg2I4,1.2862,137,4.490653,4.490653,13.56207,90.0,90.0,90.0
6547,Hf4O8,4.0099,14,5.197739,5.139948,5.315592,80.27932,90.0,90.0
6548,Cl1K1,5.0418,225,4.514877,4.514877,4.514877,60.0,60.0,60.0
6549,N8Si6,4.2447,176,7.6607400000000005,7.660795,2.9253270000000002,90.0,90.0,119.9998
6550,O24W8,1.0416,2,8.05563,9.949126,7.50048,98.91567,90.00209,89.82063
6551,Mg1O1,4.47,225,3.007162,3.007162,3.007162,60.0,60.0,60.0
6552,Na8S20,1.7549000000000001,62,5.900068,7.777896,14.69896,90.0,90.0,90.0
6553,P12Si12,1.5912000000000002,36,10.44069,10.44069,14.905,90.0,90.0,160.5256
6554,Na6O6,1.7589000000000001,189,6.257278,6.257278,4.489725,90.0,90.0,120.0019
6555,Se2Sn2,0.3607,63,6.458439,6.458439,4.340135,90.0,90.0,140.8941
6556,Cd2Se2,0.6893,186,4.373373,4.372981,7.13554,90.0,90.0,120.003
6557,Cl6Ir2,2.455,12,6.118842,6.118842,6.642536,81.51487,81.51487,120.0645
6558,Pb1Se1,0.39840000000000003,225,4.38692,4.38692,4.38692,60.0,60.0,60.0
6559,Li4O4,1.9769999999999999,194,3.181457,3.181457,7.687078,90.0,90.0,119.9992
6560,Na6P2,0.4702,194,4.934446,4.934446,8.783769,90.0,90.0,120.0039
6561,Ca1O1,3.6358,225,3.422625,3.422625,3.422625,60.0,60.0,60.0
6562,Li1N3,3.6387,12,3.304721,3.304721,4.989079,75.10198,75.10198,61.05106
6563,Cd6I12,2.3916,164,4.312654,4.312619,43.52865,90.00321,90.0,120.0003
6564,O4Pb4,2.2911,29,6.214899,5.762829,5.315079,90.0,90.0,90.0
6565,Ba2P6,0.5636,12,7.063226,7.063226,4.805687,71.35295,71.35295,66.53999
6566,Ag2Cl2,1.3799000000000001,63,6.021754,6.021754,4.050067,90.0,90.0,143.9587
6567,Cl1K1,4.7993,221,3.838882,3.838882,3.838882,90.0,90.0,90.0
6568,Br4Ca2,4.4516,136,6.851123,6.851123,4.407448,90.0,90.0,90.0
6569,I8O16,1.4537,14,7.047071,8.181178,8.318256,63.21607,90.0,90.0
6570,Pb1Se1,0.3985,225,4.386943,4.386943,4.386943,60.0,60.0,60.0
6571,Eu1Te1,0.7896000000000001,225,4.690931,4.690931,4.690931,60.0,60.0,60.0
6572,O8Si4,5.1693,24,8.369777,8.369777,8.369777,150.5501,147.4891,44.43259
6573,Ge1Te1,0.6307,160,4.295315,4.295315,4.295315,58.89465,58.89465,58.89465
6574,I8O20,2.6454,14,5.229861,8.515282,11.11802,73.31665,90.0,90.0
6575,Ag4O2,0.0868,224,4.87957,4.87957,4.87957,90.0,90.0,90.0
6576,O4Ti2,2.2616,136,4.67114,4.67114,3.023969,90.0,90.0,90.0
6577,Ac2Cl6,5.0778,176,7.751904,7.751754,4.568207,90.0,90.0,120.0006
6578,Fe2Se2,0.5835,67,4.437061,4.437061,5.4614139999999995,90.0,90.0,89.71251
6579,O4Pb4,2.1655,57,4.798605,5.761599,6.217645,90.0,90.0,90.0
6580,O12Ti8,0.4486,62,2.905331,7.9645969999999995,8.31872,90.0,90.0,90.0
6581,Mn4S8,1.2323,205,5.647621,5.647621,5.647621,90.0,90.0,90.0
6582,Pb2S2,0.0373,194,4.151289,4.151289,7.333535,90.0,90.0,120.0034
6583,Cu1I1,1.6526,216,4.304099,4.304099,4.304099,60.0,60.0,60.0
6584,O1Sr1,3.2754,225,3.68059,3.68059,3.68059,60.0,60.0,60.0
6585,As16S16,2.3445,14,18.05508,7.700673,9.867632,83.28113,90.0,90.0
6586,O8Si4,5.5454,92,5.048794,5.048794,7.02823,90.0,90.0,90.0
6587,In2Se2,0.3095,160,8.907261,8.907261,8.907261,26.50089,26.50089,26.50089
6588,S2Ti1,0.5438000000000001,164,3.474974,3.474974,6.306683,89.98948,90.01052,119.9942
6589,O10V4,2.1305,59,3.621306,4.622872,11.57052,90.0,90.0,90.0
6590,O12Si6,5.4777000000000005,217,7.779314,7.779314,7.779314,109.4712,109.4712,109.4712
6591,P8S12,2.3095,11,11.08619,7.044393,7.507045,89.02067,90.0,90.0
6592,Co4Sb12,0.14730000000000001,204,7.8701550000000005,7.8701550000000005,7.8701550000000005,109.4712,109.4712,109.4712
6593,Ba8Si16,0.7682,62,6.766614,9.03853,11.596540000000001,90.0,90.0,90.0
6594,Ca6N4,0.7722,167,6.605075,6.60509,6.605058,55.95189,55.95173,55.95162
6595,O4Si2,5.0057,136,4.234114,4.234114,2.69262,90.0,90.0,90.0
6596,Cu4O2,0.6551,224,4.290371,4.290371,4.290371,90.0,90.0,90.0
6597,Fe4Si4,0.8724000000000001,198,4.417673,4.417673,4.417673,90.0,90.0,90.0
6598,Al4O6,5.8499,167,5.181387,5.181387,5.181387,55.28839,55.28839,55.28839
6599,O2Th1,4.5398,225,4.120189,4.120189,4.120189,60.0,60.0,60.0
6600,Cu4O2,0.6558,224,4.289883,4.289883,4.289883,90.0,90.0,90.0
6601,Bi8O12,2.2551,14,8.305317,5.944587,7.565603,67.37651,90.0,90.0
6602,Cd4P8,1.4674,33,5.242908,5.457418,10.00788,90.0,90.0,90.0
6603,O4Zr2,3.8689,137,3.643335,3.643335,5.298951,90.0,90.0,90.0
6604,O20V12,0.6758000000000001,13,5.166083,7.090428,10.00637,70.84103,90.0,90.0
6605,Se2Sn1,0.5374,164,3.928236,3.928236,6.415251,90.00398,89.99602,119.9996
6606,La6O9,3.4389,12,7.716525,7.716525,9.337302,80.05825,80.05825,28.76988
6607,S1Sr1,2.4956,225,4.286813,4.286813,4.286813,60.0,60.0,60.0
6608,O1Yb1,1.0945,225,3.455854,3.455854,3.455854,60.0,60.0,60.0
6609,As16Zn24,0.1295,137,8.324473,8.324473,11.75569,90.0,90.0,90.0
6610,Cd8Sb8,0.06380000000000001,61,6.551196,8.430934,8.706147,90.0,90.0,90.0
6611,Te1Yb1,1.2373,225,4.533474,4.533474,4.533474,60.0,60.0,60.0
6612,Os4Si4,0.6899000000000001,198,4.776721,4.776721,4.776721,90.0,90.0,90.0
6613,Ir8S16,0.5997,62,3.596775,5.677072,19.9641,90.0,90.0,90.0
6614,Mg8O8,3.8665000000000003,166,20.07318,20.07318,20.07318,8.564656,8.564656,8.564655
6615,S1Yb1,1.146,225,4.029298,4.029298,4.029298,60.0,60.0,60.0
6616,O4Ti2,2.2623,136,4.672447,4.672447,3.024149,90.0,90.0,90.0
6617,Pb1Se1,0.398,225,4.386716,4.386716,4.386716,60.0,60.0,60.0
6618,Ba4H8,2.8693,62,4.154919,6.823204,7.859518,90.0,90.0,90.0
6619,O4Ti2,2.2640000000000002,136,4.673081,4.673081,3.022763,90.0,90.0,90.0
6620,O12Rh8,1.7027,60,5.251504,5.466842,7.375351,90.0,90.0,90.0
6621,Li6N2,1.221,194,3.56291,3.56291,6.353717,90.0,90.0,120.0035
6622,O8Si4,5.3635,194,5.275444,5.275232,8.616266,90.0,90.0,120.0013
6623,Fe12S12,0.7752,40,6.281739,6.300181,11.97261,90.0,90.0,119.9032
6624,Hf4O8,3.385,62,3.332474,5.557965,6.505517,90.0,90.0,90.0
6625,Cd10I20,2.4064,156,4.313734,4.313734,72.75847,90.00272,89.99728,120.0011
6626,C6N8,3.1721,176,6.450004,6.450022,2.422608,90.0,90.0,119.9991
6627,Se8U4,0.12710000000000002,62,4.3095040000000004,7.5825569999999995,9.076599,90.0,90.0,90.0
6628,B5H9,5.8019,107,5.86941,5.86941,5.86941,102.3344,102.3344,124.9434
6629,O4Zr2,3.8709,137,3.644407,3.644407,5.302272,90.0,90.0,90.0
6630,Br4Ca2,4.5496,58,4.393053,6.704192,6.95137,90.0,90.0,90.0
6631,B1P1,1.2475,216,3.214736,3.214736,3.214736,60.0,60.0,60.0
6632,I1Rb1,3.7748,225,5.297695,5.297695,5.297695,60.0,60.0,60.0
6633,O24Si12,0.5142,177,13.15718,13.15718,3.892188,90.0,90.0,120.0
6634,Ga1P1,1.6429,216,3.88319,3.88319,3.88319,60.0,60.0,60.0
6635,Be2C1,1.1649,225,3.060391,3.060391,3.060391,60.0,60.0,60.0
6636,Te20U4,0.5587,62,4.339921,10.26246,19.21981,90.0,90.0,90.0
6637,O6Si3,5.7207,154,4.967561,4.966552,5.468393,90.00366,90.00362,120.0004
6638,S8U4,0.47850000000000004,62,4.17899,7.206502,8.600464,90.0,90.0,90.0
6639,Hf1Se2,0.5371,164,3.769102,3.769102,6.80746,90.00032,89.99968,119.9988
6640,Cl6Pr2,3.0222,176,7.517643,7.527444,4.314281,90.0,90.0,120.0003
6641,Sb2Te3,0.0436,166,10.57985,10.57985,10.57985,23.6939,23.6939,23.6939
6642,As4N36,3.333,14,12.24803,7.295382,7.6447,73.0101,90.0,90.0
6643,F24U4,3.8336,62,5.479806,9.440308,10.40231,90.0,90.0,90.0
6644,O1Sr1,3.2755,225,3.680932,3.680932,3.680932,60.0,60.0,60.0
6645,S4Sr2,1.2751000000000001,140,5.819342,5.819342,5.819342,116.3228,116.3228,96.49663
6646,Cl6W1,1.9121000000000001,148,7.132141,7.132141,7.132141,55.28689,55.28689,55.28689
6647,O4Ti2,2.5443,141,5.566795,5.566795,5.566795,139.3803,139.3803,58.79538
6648,Mo3Si6,0.2872,180,4.626586,4.626586,6.619804,90.0,90.0,120.0
6649,Se1Yb1,1.3282,225,4.225997,4.225997,4.225997,60.0,60.0,60.0
6650,Li2Te1,2.4957000000000003,225,4.613544,4.613544,4.613544,60.0,60.0,60.0
6651,F4Sn1,2.6390000000000002,139,5.069489,5.069489,5.069489,130.8113,130.8113,72.11303
6652,Nd2O3,3.6538,164,3.873895,3.873895,6.11484,89.99811,90.00189,119.9971
6653,Li2Se1,2.9754,225,4.258464,4.258464,4.258464,60.0,60.0,60.0
6654,Ge3O6,3.1468,152,5.060925,5.061124,5.764742,90.00756,89.99218,120.0082
6655,I16Sr8,3.7878,61,8.001909,8.329885,15.65823,90.0,90.0,90.0
6656,Li2Te1,2.498,225,4.616569,4.616569,4.616569,60.0,60.0,60.0
6657,Bi4I12,2.3543,14,13.26401,8.143682,7.919461,68.0117,90.0,90.0
6658,F8Mg4,6.7269,205,5.010711,5.010711,5.010711,90.0,90.0,90.0
6659,Cl4Cr2,2.0859,58,3.547654,6.113628,6.788047,90.0,90.0,90.0
6660,Cl1K1,5.0392,225,4.516082,4.516082,4.516082,60.0,60.0,60.0
6661,Li6N2,1.2207,194,3.56446,3.564494,6.349068,90.0,90.0,119.9997
6662,C2Ca1,1.2833,139,4.217157,4.217157,4.217157,125.3981,125.3981,80.87972
6663,Cd4I8,2.3876,186,4.310605,4.310584,28.94049,90.0,90.0,120.0002
6664,As2B12,2.6507,166,5.332663,5.332663,5.332663,70.56335,70.56335,70.56335
6665,I8Te8,0.7568,2,8.425676,10.18023,8.734158,103.4343,104.1076,89.76086
6666,Se4Sn4,0.6513,62,4.265198,4.544724,11.96137,90.0,90.0,90.0