,full_formula,DebyeTemp,spacegroup.number,structure.lattice.a,structure.lattice.b,structure.lattice.c,structure.lattice.alpha,structure.lattice.beta,structure.lattice.gamma
4217,B8Er2Rh8,437.823,137,5.310898,5.310898,7.421436,90.0,90.0,90.0
4218,As2Co2S2,512.13,31,3.491586,4.604064,5.574245,90.0,90.0,89.99782
4219,C4Sn2Ti6,578.091,63,3.2009,3.200689,19.00353,90.0,90.0,119.9978
4220,Cr2O8Tb2,441.3,141,6.014032,6.014032,6.014032,105.949,105.949,116.7717
4221,In2La4Rh4,202.397,127,7.703481,7.703481,4.030144,90.0,90.0,90.0
4222,Ag1Cu4Nd1,238.435,216,5.1737400000000004,5.1737400000000004,5.1737400000000004,60.0,60.0,60.0
4223,Bi1In1O3,347.425,221,4.154814,4.154814,4.154814,90.0,90.0,90.0
4224,As4K12S12,195.5,198,9.522419,9.522419,9.522419,90.0,90.0,90.0
4225,Nb6Ni16Si7,506.812,225,7.916069,7.916069,7.916069,60.0,60.0,60.0
4226,Hf2O6Sr2,489.76,140,5.832423,5.832423,5.832423,120.6498,120.6498,88.87808
4227,Bi1Ho1Ni1,249.749,216,4.552332,4.552332,4.552332,60.0,60.0,60.0
4228,Ca2In8Pd2,210.074,63,8.726709,8.726709,7.614953,90.0,90.0,150.0759
4229,C1Dy3Ga1,176.561,221,5.297339,5.297339,5.297339,90.0,90.0,90.0
4230,La1Os1Si3,372.03,107,5.85649,5.85649,5.85649,136.8381,136.8381,62.68721
4231,As2Ca1Ru2,351.87,139,5.947454,5.947454,5.947454,138.4663,138.4663,60.1896
4232,Cl6Cs2Se1,130.748,225,7.542047,7.542047,7.542047,60.0,60.0,60.0
4233,Ag1P1Pd5,259.263,123,3.950398,3.950398,6.96042,90.0,90.0,90.0
4234,Cu1Ni2Sn1,238.184,225,4.222826,4.222826,4.222826,60.0,60.0,60.0
4235,La2O2Te1,254.211,139,7.307578,7.307578,7.307578,146.7341,146.7341,47.75763
4236,Au4Ca4Pb2,170.36,127,8.147797,8.147797,3.872443,90.0,90.0,90.0
4237,Dy2Ir4Si4,297.612,129,4.112663,4.112663,9.765825,90.0,90.0,90.0
4238,Er3Ir3Sn3,221.849,189,7.542946,7.542946,3.839594,90.0,90.0,120.0
4239,F24Na4Sb4,225.498,205,8.481406,8.481406,8.481406,90.0,90.0,90.0
4240,Al6Ca6Si6,469.321,186,4.206521,4.206533,26.18205,90.0,90.0,119.9999
4241,F3K1Zn1,422.495,221,4.045599,4.045599,4.045599,90.0,90.0,90.0
4242,Ag4Mo2O8,221.177,227,6.691766,6.691766,6.691766,60.0,60.0,60.0
4243,B14W2Y6,675.292,63,8.195617,8.195617,9.505144,90.0,90.0,155.4824
4244,P1Pd5Tl1,265.514,123,3.9768689999999998,3.9768689999999998,7.107329,90.0,90.0,90.0
4245,Ge2La1Ru2,332.965,139,5.936506,5.936506,5.936506,137.1338,137.1338,62.23224
4246,Nb8Ni2P2,447.435,124,6.178266,6.178266,5.000105,90.0,90.0,90.0
4247,Cs2Hf1I6,79.0297,225,8.47494,8.47494,8.47494,60.0,60.0,60.0
4248,Cl8Li6V1,352.508,225,7.320006,7.320006,7.320006,60.0,60.0,60.0
4249,Hf2O6Sr2,494.403,127,5.786036,5.786036,4.169374,90.0,90.0,90.0
4250,Ni4S4Sb4,339.753,198,5.931034,5.931034,5.931034,90.0,90.0,90.0
4251,Cd2Cr4Se8,241.731,227,7.75364,7.75364,7.75364,60.0,60.0,60.0
4252,Ir4Sb4Se4,326.156,198,6.247257,6.247257,6.247257,90.0,90.0,90.0
4253,Al4Mn2S8,413.6,227,7.239657,7.239657,7.239657,60.0,60.0,60.0
4254,Ca2O8Tl4,298.89,63,5.856335,5.856335,10.65597,90.0,90.0,146.442
4255,Ge4Pd4Zr4,367.171,62,3.980591,6.7387429999999995,7.801105,90.0,90.0,90.0
4256,Au2Si2Yb1,226.588,139,5.943911,5.943911,5.943911,137.1772,137.1772,62.16552
4257,O14Pt4Sb4,414.611,227,7.239365,7.239365,7.239365,60.0,60.0,60.0
4258,Ca3O1Sn1,402.896,221,4.85611,4.85611,4.85611,90.0,90.0,90.0
4259,Ge2Pd2Tb1,240.487,139,5.893649,5.893649,5.893649,137.4057,137.4057,61.81436
4260,Ho4Pd4Sn4,212.486,62,4.66533,7.194382,7.9884319999999995,90.0,90.0,90.0
4261,Cu2Ge2La1,334.672,139,5.950641,5.950641,5.950641,138.107,138.107,60.73923
4262,La2Pd6S8,287.908,223,6.824892,6.824892,6.824892,90.0,90.0,90.0
4263,Pd2Si2Th1,335.36,139,5.880039,5.880039,5.880039,137.4589,137.4589,61.73269
4264,Al40Ti4Yb2,499.579,227,10.43882,10.43882,10.43882,60.0,60.0,60.0
4265,Al3B6Ni20,495.88,225,7.416955,7.416955,7.416955,60.0,60.0,60.0
4266,Mo4P4Rh4,453.25,62,3.934974,5.9964200000000005,7.014085,90.0,90.0,90.0
4267,Al4Pd4Tb4,234.242,62,4.458659,6.938739,7.782226,90.0,90.0,90.0
4268,Al4Co2O8,712.84,227,5.78969,5.78969,5.78969,60.0,60.0,60.0
4269,Ca3Cl3P1,374.159,221,5.713502,5.713502,5.713502,90.0,90.0,90.0
4270,Ba6Bi2N2,133.989,194,7.769339,7.769339,6.8054120000000005,90.0,90.0,120.0003
4271,P4Rh4Ta4,325.059,62,3.757027,6.360211,7.218941,90.0,90.0,90.0
4272,C1Dy3Sn1,301.623,221,4.8956029999999995,4.8956029999999995,4.8956029999999995,90.0,90.0,90.0
4273,Cd2Sb4Sn2,177.217,122,8.108816,8.108816,8.108816,131.5949,131.5949,70.86959
4274,Al1Au2Mn1,194.516,225,4.572902,4.572902,4.572902,60.0,60.0,60.0
4275,La1Ru1Si3,406.67,107,5.836909,5.836909,5.836909,136.9545,136.9545,62.508
4276,Ba2Li2P2,310.42,194,4.533166,4.533187,8.748271,90.0,90.0,119.9998
4277,Ba4Ce4O12,365.243,62,6.318541,6.320271,8.90941,90.0,90.0,90.0
4278,Li1Mg1P1,426.87,216,4.082598,4.082598,4.082598,60.0,60.0,60.0
4279,Al4Se8Zn2,316.626,227,7.535522,7.535522,7.535522,60.0,60.0,60.0
4280,Ba6S10Ti2,246.935,140,9.27853,9.27853,9.27853,125.0799,125.0799,81.40572
4281,Ge4La2Ni2,328.036,63,8.736219,8.736219,4.259408,90.0,90.0,151.2649
4282,C1Pu1Ru3,319.932,221,4.1239,4.1239,4.1239,90.0,90.0,90.0
4283,Cu2Sn2Y2,317.371,186,4.574039,4.574088,7.319995,90.0,90.0,120.0018
4284,Au2H6Ti6,445.978,223,5.384076,5.384076,5.384076,90.0,90.0,90.0
4285,Co3Ga3Hf3,324.055,189,6.862199,6.862199,3.300918,90.0,90.0,120.0006
4286,Ag1Cu4Er1,192.117,216,5.055557,5.055557,5.055557,60.0,60.0,60.0
4287,La1Ni2Rh3,337.581,191,5.283293,5.283293,4.04811,90.0,90.0,120.0013
4288,Ag1Cu4Tb1,224.7,216,5.072471,5.072471,5.072471,60.0,60.0,60.0
4289,Ca10In4Sb12,211.877,55,4.617484,12.18144,14.3684,90.0,90.0,90.0
4290,Al16Os7Sc6,426.095,225,8.780891,8.780891,8.780891,60.0,60.0,60.0
4291,Dy16In4Rh4,208.525,216,9.628976,9.628976,9.628976,60.0,60.0,60.0
4292,Mg1Pd1Sb1,248.704,216,4.47209,4.47209,4.47209,60.0,60.0,60.0
4293,Nd1P12Ru4,533.37,204,7.008087,7.008087,7.008087,109.4712,109.4712,109.4712
4294,Cd1Cu4Yb1,180.145,216,5.128947,5.128947,5.128947,60.0,60.0,60.0
4295,Pb2Pd4Tb4,183.438,127,7.866721,7.866721,3.679316,90.0,90.0,90.0
4296,Au2In2O4,252.909,194,3.3456989999999998,3.3456989999999998,12.53734,90.0,90.0,120.003
4297,Au2Si2Tb1,256.71,139,5.962223,5.962223,5.962223,138.318,138.318,60.41632
4298,Ce1P12Ru4,568.172,204,7.001433,7.001433,7.001433,109.4712,109.4712,109.4712
4299,Ge3Os3Zr3,366.534,189,6.77487,6.77487,3.819931,90.0,90.0,119.9995
4300,Al2Sn6Zr10,352.222,193,8.777467,8.777474999999999,5.934949,90.0,90.0,120.0
4301,C1Ga1Ho3,178.728,221,5.269472,5.269472,5.269472,90.0,90.0,90.0
4302,Cl1O4Tl1,131.296,216,5.504611,5.504611,5.504611,60.0,60.0,60.0
4303,Er4Ge4Ir4,225.862,62,4.365339,6.839665,7.45469,90.0,90.0,90.0
4304,Co4In2Zr4,336.158,127,7.345682,7.345682,3.412389,90.0,90.0,90.0
4305,Ce4O12Sr4,399.631,62,6.070218,6.239561,8.703008,90.0,90.0,90.0
4306,As4K4Ni2,202.137,63,7.738985,7.738985,5.787553,90.0,90.0,129.0105
4307,Sn2Te6Tl8,136.391,140,9.177088,9.177088,9.177088,121.7657,121.7657,86.96794
4308,Dy2In2Pt4,198.079,194,4.55125,4.551335,9.003765,90.0,90.0,119.9994
4309,La3O7Ta1,419.524,65,6.8752200000000006,6.8752200000000006,3.991907,90.0,90.0,110.4074
4310,C1Tb3Tl1,131.098,221,5.638236,5.638236,5.638236,90.0,90.0,90.0
4311,Pd2Si2Sr1,304.349,139,5.788204,5.788204,5.788204,135.6534,135.6534,64.51667
4312,Dy2Ge2Sn2,252.834,63,8.456988,8.456988,4.11433,90.0,90.0,150.5585
4313,Nb6S12V2,465.669,182,5.821093,5.821089,12.41164,90.0,90.0,120.0
4314,Bi1Dy1Pt1,201.381,216,4.741675,4.741675,4.741675,60.0,60.0,60.0
4315,Al4Au4Sr2,213.72,129,4.511116,4.511116,10.61076,90.0,90.0,90.0
4316,As4Co4Nb4,417.789,62,3.771999,6.40111,7.145483,90.0,90.0,90.0
4317,O8Si2Zr2,678.132,88,6.315416,6.315416,6.315416,135.4738,135.4738,64.79497
4318,Cd2Er4Se8,182.793,227,8.290489,8.290489,8.290489,60.0,60.0,60.0
4319,In4Pd8Zr8,259.561,136,7.50412,7.50412,6.907693,90.0,90.0,90.0
4320,Ge4Hf4Rh4,325.549,62,3.990744,6.58011,7.590412,90.0,90.0,90.0
4321,Co2Si4Tb2,397.525,63,8.254037,8.254037,3.981553,90.0,90.0,151.6771
4322,Al2Hg1Te4,173.554,82,7.443197,7.443197,7.443197,129.9933,129.9933,73.41749
4323,Au6La6Sb8,211.998,220,8.881906,8.881906,8.881906,109.4712,109.4712,109.4712
4324,Mn4O14Tl4,431.912,227,7.134952,7.134952,7.134952,60.0,60.0,60.0
4325,P1Pt5Zn1,270.594,123,3.884001,3.884001,6.967861,90.0,90.0,90.0
4326,As1In1Pt5,250.311,123,4.027321,4.027321,7.095745,90.0,90.0,90.0
4327,Er3Pd3Tl3,155.398,189,7.797584,7.797584,3.774134,90.0,90.0,119.9996
4328,B6Ni2W6,543.614,63,4.5336680000000005,4.5336680000000005,10.81221,90.0,90.0,138.4676
4329,Ag3Er3Sn3,227.856,189,7.440028,7.440028,4.493707,90.0,90.0,120.0
4330,Cr4Mg2O8,625.558,227,5.999721,5.999721,5.999721,60.0,60.0,60.0
4331,B8Nb7Ru6,619.908,175,9.602413,9.602767,3.127273,90.0,90.0,119.9999
4332,Nb4Rh4Si4,495.297,62,3.761807,6.442948,7.344096,90.0,90.0,90.0
4333,Ag4Dy4Se8,194.87,19,4.235938,6.936028,13.87774,90.0,90.0,90.0
4334,Al4Au4Y4,269.241,62,4.500814,7.218535,7.7791429999999995,90.0,90.0,90.0
4335,Ge1In1Li1,312.908,216,4.503902,4.503902,4.503902,60.0,60.0,60.0
4336,B1Sc3Tl1,370.971,221,4.760387,4.760387,4.760387,90.0,90.0,90.0
4337,B8Re2Th2,562.716,65,6.180656,6.180656,3.786834,90.0,90.0,104.1231
4338,Ir4S4Sb4,356.078,198,6.091858,6.091858,6.091858,90.0,90.0,90.0
4339,C2Na2Pd1,332.26,164,4.471552,4.471542,5.290034,90.00003,90.0,120.0001
4340,Dy4Pt4Si4,286.858,62,4.286092,7.001861,7.447171,90.0,90.0,90.0
4341,Li5N2Na1,543.82,123,3.699169,3.699169,5.228572,90.0,90.0,90.0
4342,C1La3Pb1,247.859,221,5.292092,5.292092,5.292092,90.0,90.0,90.0
4343,Ni16Si7Ta6,461.285,225,7.912136,7.912136,7.912136,60.0,60.0,60.0
4344,Cu2K2Te2,216.423,194,4.501505,4.50143,10.09473,90.0,90.0,120.0006
4345,Os4Sb12Sr1,252.181,204,8.170045,8.170045,8.170045,109.4712,109.4712,109.4712
4346,Hf1Ni2Sn1,285.364,225,4.435834,4.435834,4.435834,60.0,60.0,60.0
4347,C6Nb16Zn8,432.681,227,8.49126,8.49126,8.49126,60.0,60.0,60.0
4348,Se6Sn2Tl8,143.348,140,8.804057,8.804057,8.804057,122.0685,122.0685,86.45304
4349,B1Pd3Yb1,161.55,221,4.311599,4.311599,4.311599,90.0,90.0,90.0
4350,Cd1N1Ni3,399.184,221,3.825747,3.825747,3.825747,90.0,90.0,90.0
4351,Li1Mg8Si4,481.2,221,6.404607,6.404607,6.404607,90.0,90.0,90.0
4352,Al4Fe6Si8,659.35,63,6.377674,6.377674,10.04873,90.0,90.0,147.1241
4353,Ir4Mg4Tb16,191.902,216,9.722737,9.722737,9.722737,60.0,60.0,60.0
4354,Ca2Pd2Sn4,198.19,63,6.132657,6.132657,7.56964,90.0,90.0,136.8995
4355,La1Mn1O3,502.187,221,3.962923,3.962923,3.962923,90.0,90.0,90.0
4356,Cs12O12Sb4,121.355,198,9.365906,9.365906,9.365906,90.0,90.0,90.0
4357,Al16Rh7Sc6,467.546,225,8.753924,8.753924,8.753924,60.0,60.0,60.0
4358,B2C4N2,1995.75,17,3.649908,3.607207,3.6010489999999997,90.0,90.0,90.0
4359,Au1Ho1Ni4,320.571,216,4.916253,4.916253,4.916253,60.0,60.0,60.0
4360,Cu2In1Zr1,318.253,225,4.5484729999999995,4.5484729999999995,4.5484729999999995,60.0,60.0,60.0
4361,Ag2Au2F8,175.97,140,6.910452,6.910452,6.910452,129.8867,129.8867,73.58798
4362,Os1Si3Th1,322.681,107,5.852288,5.852288,5.852288,136.8617,136.8617,62.65093
4363,As2Mg2Na2,298.991,129,4.410085,4.410085,7.185452,90.0,90.0,90.0
4364,Li1P1Sr1,357.447,187,4.301397,4.301327,4.260871,90.0,90.0,120.0005
4365,Al6C6Dy2,715.722,194,3.436044,3.436044,17.33348,90.0,90.0,119.9985
4366,Ru6Si4Y2,426.078,191,5.571898,5.572029,7.225523,90.0,90.0,120.007
4367,Al4O8Pb2,363.569,40,5.324313,5.324157,8.576495,89.99678,89.99442,121.9508
4368,Ni2Si2Th2,234.898,109,7.612731,7.612731,7.612731,148.3513,148.3513,45.3671
4369,Nb4P4V4,554.204,62,3.430123,6.439438,7.767033,90.0,90.0,90.0
4370,B8Ho2Rh8,437.114,137,5.313284,5.313284,7.430926,90.0,90.0,90.0
4371,Ir8S12Sn12,233.51,200,8.935527,8.935527,8.935527,90.0,90.0,90.0
4372,Au2Ga2Zr2,280.281,187,4.476942,4.477213,6.406203,90.0,90.0,119.998
4373,Ca2Ge2Zn2,350.673,194,4.307289,4.307133,8.188386,90.0,90.0,120.0012
4374,Be4N8Si4,1181.71,33,4.7010819999999995,5.001099,5.773452,90.0,90.0,90.0
4375,La1O3Ti1,387.846,221,4.000552,4.000552,4.000552,90.0,90.0,90.0
4376,Hf2Si2V2,373.874,129,3.675672,3.675672,7.19395,90.0,90.0,90.0
4377,C1Na4O4,350.981,121,5.784721,5.784721,5.784721,99.97119,99.97119,130.8207
4378,F6Si1Tl2,128.197,225,6.111447,6.111447,6.111447,60.0,60.0,60.0
4379,Al1F4Rb1,367.505,123,3.717629,3.717629,6.399492,90.0,90.0,90.0
4380,Rh4Si4Ti4,483.241,62,3.826455,6.346093,7.323157,90.0,90.0,90.0
4381,Fe4P4V4,674.304,62,3.480105,5.91192,6.648987,90.0,90.0,90.0
4382,Au1Cu4Tb1,157.576,216,5.056083,5.056083,5.056083,60.0,60.0,60.0
4383,Ca4O12Tc4,574.16,62,5.48346,5.666609,7.847533,90.0,90.0,90.0
4384,Co2Ni4S8,285.035,227,6.977523,6.977523,6.977523,60.0,60.0,60.0
4385,Ni2S6Ta9,288.746,189,10.23,10.23,3.412544,90.0,90.0,120.0008
4386,As4Ge2Mg2,280.147,122,7.068272,7.068272,7.068272,129.5884,129.5884,74.06563
4387,Bi4Ir4S4,293.67,198,6.212232,6.212232,6.212232,90.0,90.0,90.0
4388,C4Cr12Nb12,538.313,227,8.210989,8.210989,8.210989,60.0,60.0,60.0
4389,Ga4O12Te2,594.724,136,4.610683,4.610683,9.080197,90.0,90.0,90.0
4390,Al4C6Th4,436.716,58,3.590626,5.522763,11.82015,90.0,90.0,90.0
4391,Sn4Y4Zn4,295.008,194,4.531391,4.531391,15.88759,90.0,90.0,119.989
4392,In2N2Ti4,504.343,194,3.111021,3.111014,14.30651,90.0,90.0,120.0001
4393,Ga6Hf6Nb4,351.782,193,7.940001,7.940001,5.476396,90.0,90.0,120.0
4394,Ag4Ho4Se8,196.675,19,4.21353,6.92584,13.82474,90.0,90.0,90.0
4395,O12Sn4Sr4,455.148,62,5.907069,5.841077,8.278664,90.0,90.0,90.0
4396,Ag2In1Li1,173.102,225,4.71786,4.71786,4.71786,60.0,60.0,60.0
4397,Be4C4N8,1676.29,33,4.252811,4.410987,5.305206,90.0,90.0,90.0
4398,In3La3Pt3,192.163,189,7.779718,7.779718,4.178076,90.0,90.0,119.9795
4399,Pd4Sb4Te4,210.898,198,6.627257,6.627257,6.627257,90.0,90.0,90.0
4400,Au2Si2Y2,249.197,186,4.339416,4.339416,7.575217,90.0,90.0,119.997
4401,Al1Ge1Li1,498.122,216,4.241548,4.241548,4.241548,60.0,60.0,60.0
4402,Ba2Sn2Zn2,216.102,194,4.771902,4.771813,9.923324,90.0,90.0,120.0006
4403,Bi4Pb4Pd8,162.028,36,5.741037,5.741037,10.65976,90.0,90.0,101.6763
4404,Ir8N4Zr16,321.279,227,8.809659,8.809659,8.809659,60.0,60.0,60.0
4405,C6Nb8Si2,595.728,194,3.204575,3.204575,22.98334,90.0,90.0,120.0004
4406,B3La3Pt6,211.942,180,5.555777,5.555777,8.103931,90.0,90.0,120.0
4407,In8Ni2Sr2,220.021,63,8.9234,8.9234,7.4022369999999995,90.0,90.0,150.7334
4408,Au1Cd1Sb1,124.499,216,4.711435,4.711435,4.711435,60.0,60.0,60.0
4409,Ba4Hg8Tl8,107.463,136,11.0041,11.0041,5.200278,90.0,90.0,90.0
4410,Li4O12Sb4,509.56,52,4.988726,5.271066,8.606114999999999,90.0,90.0,90.0
4411,Cu2F8Sr2,346.564,140,6.723557,6.723557,6.723557,129.5289,129.5289,74.16107
4412,Hf1Ni2Si2,411.888,139,5.477866,5.477866,5.477866,140.0718,140.0718,57.74434
4413,O8P2Y2,544.589,141,5.7945,5.7945,5.7945,105.958,105.958,116.7524
4414,Cu2In2Se4,218.105,122,7.21031,7.21031,7.21031,131.9587,131.9587,70.29426
4415,Ca2Cu2F8,427.151,140,6.494649,6.494649,6.494649,130.2061,130.2061,73.07756
4416,Ca1F6Pb1,291.112,225,6.174741,6.174741,6.174741,60.0,60.0,60.0
4417,Al1Ca1Si1,473.546,187,4.20608,4.20608,4.380548,90.0,90.0,120.0004
4418,C1Dy1Rh3,353.664,221,4.16186,4.16186,4.16186,90.0,90.0,90.0
4419,C1Rh3Yb1,325.206,221,4.198604,4.198604,4.198604,90.0,90.0,90.0
4420,C4Nb16Rh8,304.963,227,8.48658,8.48658,8.48658,60.0,60.0,60.0
4421,Er3Ga9Ru3,323.183,221,6.382886,6.382886,6.382886,90.0,90.0,90.0
4422,Hf4P2Sb2,309.444,194,3.806579,3.806579,13.19975,90.0,90.0,119.9997
4423,Ag2Cr4Te8,96.1675,227,8.260699,8.260699,8.260699,60.0,60.0,60.0
4424,Ga1Mn1Ti2,253.982,216,4.383356,4.383356,4.383356,60.0,60.0,60.0
4425,Au2F8K2,180.005,140,7.271872,7.271872,7.271872,130.2487,130.2487,73.00951
4426,Sb4Se12Tl12,98.6453,198,9.668427,9.668427,9.668427,90.0,90.0,90.0
4427,C1Ti3Tl1,436.195,221,4.409703,4.409703,4.409703,90.0,90.0,90.0
4428,Ag1Cu4U1,212.447,216,5.166897,5.166897,5.166897,60.0,60.0,60.0
4429,Er3In1N1,310.148,221,4.763532,4.763532,4.763532,90.0,90.0,90.0
4430,Ho2In1Ni2,233.479,65,7.375379,7.375379,3.5700149999999997,90.0,90.0,149.2972
4431,Mo3P3Zr3,499.383,189,6.979367,6.979309,3.466318,90.0,90.0,120.0003
4432,Au2Er1In1,145.309,225,4.901203,4.901203,4.901203,60.0,60.0,60.0
4433,As4Co4S4,530.331,29,5.590895,5.602284,5.59684,90.0,90.0,90.0
4434,Cu1Ni2Sb1,264.365,225,4.201414,4.201414,4.201414,60.0,60.0,60.0
4435,Pt6Sc4Si4,363.915,55,4.07954,6.456279,8.729158,90.0,90.0,90.0
4436,In2La2Pd4,214.824,194,4.690665,4.690665,9.453341,90.0,90.0,119.9958
4437,Hf4O28V8,392.791,205,8.974872,8.974872,8.974872,90.0,90.0,90.0
4438,Cu2Hf10Sn6,265.777,193,8.621815,8.621771,5.844824,90.0,90.0,120.0002
4439,In4S12Sb4,197.09,62,3.881885,9.503656,13.49635,90.0,90.0,90.0
4440,In3Mg3Y3,313.001,189,7.538648,7.538648,4.686852,90.0,90.0,120.0016
4441,B8Nb4Ni4,742.181,62,3.125853,6.037751,8.192239,90.0,90.0,90.0
4442,Al6C6Tb2,716.451,194,3.443023,3.443023,17.38191,90.0,90.0,119.9992
4443,Cu2Li1Si1,423.357,225,4.068321,4.068321,4.068321,60.0,60.0,60.0
4444,Fe4P4Ta4,498.001,62,3.604609,6.129457,6.906145,90.0,90.0,90.0
4445,Ba1F3Li1,399.983,221,4.051787,4.051787,4.051787,90.0,90.0,90.0
4446,Cd1Na2Pb1,149.234,216,5.292932,5.292932,5.292932,60.0,60.0,60.0
4447,Al2Ni1Zr6,351.843,189,7.942057,7.942057,3.352098,90.0,90.0,119.9997
4448,Hg2In4S8,223.646,227,7.798656,7.798656,7.798656,60.0,60.0,60.0
4449,Er4Ga12Pd1,319.654,229,7.430041,7.430041,7.430041,109.4712,109.4712,109.4712
4450,Cl4Na4O12,328.614,198,6.6739370000000005,6.6739370000000005,6.6739370000000005,90.0,90.0,90.0
4451,H14Th2Zr4,352.382,227,6.646379,6.646379,6.646379,60.0,60.0,60.0
4452,Co2Mn1Sn1,310.541,225,4.533613,4.533613,4.533613,60.0,60.0,60.0
4453,Ag2Ge2La2,259.392,186,4.634087,4.634087,7.979298,90.0,90.0,120.0003
4454,O12Sr4Tb4,310.484,62,6.044507,6.214281,8.601377,90.0,90.0,90.04034
4455,Au2In1Tb1,160.009,225,4.935685,4.935685,4.935685,60.0,60.0,60.0
4456,Ru3Si3Zr3,467.567,189,6.725716,6.725716,3.681372,90.0,90.0,120.0045
4457,Ru4Si4Y4,333.911,62,4.323775,7.009782,7.121326,90.0,90.0,90.0
4458,Au2Ba2Sb2,187.98,194,4.846148,4.846148,9.402178,90.0,90.0,119.9977
4459,Si2Sr2Zn2,347.163,194,4.316216,4.316134,8.954302,90.0,90.0,120.0006
4460,Bi4Ni4Se4,239.453,198,6.248667,6.248667,6.248667,90.0,90.0,90.0
4461,Cu3Nb1Se4,221.826,215,5.7528500000000005,5.7528500000000005,5.7528500000000005,90.0,90.0,90.0
4462,Ag2Ga2O4,328.756,194,3.024632,3.024597,12.56731,90.0,90.0,120.0004
4463,O3Sr1Tc1,550.555,221,4.045172,4.045172,4.045172,90.0,90.0,90.0
4464,As4Ho2Ni8,341.712,136,7.217952,7.217952,3.748989,90.0,90.0,90.0
4465,Br6Cs2Sn1,92.3291,225,7.969652,7.969652,7.969652,60.0,60.0,60.0
4466,Au2Ho2Sn2,193.86,194,4.736374,4.736374,7.357007,90.0,90.0,119.9981
4467,Mn3P3Rh3,358.872,189,6.373843,6.373843,3.663428,90.0,90.0,120.0011
4468,Ho3Rh3Sn3,241.947,189,7.641513,7.641513,3.758247,90.0,90.0,120.0004
4469,B8Ir6Zr2,424.075,176,7.625879,7.62589,3.492004,90.0,90.0,119.9998
4470,Au2O4Y2,244.469,194,3.5861,3.5861,12.24735,90.0,90.0,120.0018
4471,B1C2Sc2,651.158,139,5.9225259999999995,5.9225259999999995,5.9225259999999995,146.8307,146.8307,47.61448
4472,Rh8Sn26Th6,233.686,223,9.938112,9.938112,9.938112,90.0,90.0,90.0
4473,C2Fe12W12,333.407,227,7.98081,7.98081,7.98081,60.0,60.0,60.0
4474,Dy2O8V2,433.433,88,6.690589,6.690589,6.690589,135.3437,135.3437,64.9967
4475,O8Pd4Y2,414.572,88,6.516055,6.516055,6.516055,126.9584,126.9584,78.31858
4476,Cr4La4Se12,282.227,62,4.061933,8.255788,14.03068,90.0,90.0,90.0
4477,C2Dy1Ni1,492.648,38,3.754549,3.754549,3.566614,90.0,90.0,106.3946
4478,Cd1Er1Ni4,314.835,216,4.931162,4.931162,4.931162,60.0,60.0,60.0
4479,Al1C1Y3,431.399,221,4.894489,4.894489,4.894489,90.0,90.0,90.0
4480,Al36Mg6Mo4,516.828,227,10.38309,10.38309,10.38309,60.0,60.0,60.0
4481,In3Pt3Y3,208.13,189,7.624237,7.624237,3.887932,90.0,90.0,120.0016
4482,O3Sn1Sr1,498.66,221,4.166854,4.166854,4.166854,90.0,90.0,90.0
4483,Li4Na4Te4,233.492,62,4.611075,7.697906,8.331802,90.0,90.0,90.0
4484,Ag8Ba4Te8,150.317,62,4.669464,11.1251,11.99665,90.0,90.0,90.0
4485,In2Pt4Y2,209.764,194,4.553074,4.55314,9.02455,90.0,90.0,119.9995
4486,As4Na12Se12,182.901,198,8.958323,8.958323,8.958323,89.99507,89.99507,89.99507
4487,Ba1Ni1Sn3,221.418,107,6.531033,6.531033,6.531033,135.7926,135.7926,64.30119
4488,Cs6Ni2O4,151.709,136,6.60884,6.60884,7.935468,90.0,90.0,90.0
4489,Dy3Pd3Tl3,156.826,189,7.819643,7.819504,3.818599,90.0,90.0,120.0006
4490,Cu4Dy4In2,207.673,127,7.533602,7.533602,3.742446,90.0,90.0,90.0
4491,Ni1Sn1Th1,244.937,216,4.717545,4.717545,4.717545,60.0,60.0,60.0