,full_formula,DebyeTemp,spacegroup.number,structure.lattice.a,structure.lattice.b,structure.lattice.c,structure.lattice.alpha,structure.lattice.beta,structure.lattice.gamma
3391,Ru2Sb2Sr1,279.171,139,6.493644,6.493644,6.493644,139.5115,139.5115,58.59574
3392,Cs8I24Sn4,77.6344,225,12.05829,12.05829,12.05829,90.0,90.0,90.0
3393,Be2Na2Sb2,294.332,194,4.166302,4.166302,9.328206,90.0,90.0,119.9963
3394,Dy1Ge2Ni2,298.87,139,5.647218,5.647218,5.647218,137.7889,137.7889,61.22642
3395,C1Dy3Tl1,134.999,221,5.614965,5.614965,5.614965,90.0,90.0,90.0
3396,Ag8Ca19N7,274.323,225,10.37603,10.37603,10.37603,60.0,60.0,60.0
3397,B2Nb2Ni2,611.612,63,6.855618,6.855618,3.081567,90.0,90.0,152.1457
3398,Au6Sb8Y6,228.794,220,8.608712,8.608712,8.608712,109.4712,109.4712,109.4712
3399,O4Rb2Sc2,461.14,194,3.319751,3.319743,12.92158,90.0,90.0,120.0001
3400,Ir4Sb4Te4,308.799,198,6.461685,6.461685,6.461685,90.0,90.0,90.0
3401,Ag2F6Rb2,240.141,140,6.294061,6.294061,6.294061,118.9758,118.9758,91.78339
3402,Al4Er2Ni2,349.942,63,5.400712,5.400712,6.852035,90.0,90.0,135.7788
3403,Er1Ni2P2,440.987,139,5.370785,5.370785,5.370785,138.1488,138.1488,60.67525
3404,Al4O12Y4,692.051,62,5.226484,5.382738,7.448375,90.0,90.0,90.0
3405,Cu6O8Pb1,354.09,225,6.6273,6.6273,6.6273,60.0,60.0,60.0
3406,Ag6P2S8,194.47,31,6.625925,6.99806,7.806135,90.0,90.0,90.0
3407,La4O14Sn4,454.677,227,7.758502,7.758502,7.758502,60.0,60.0,60.0
3408,B4C4Er2,632.201,127,5.339367,5.339367,3.5099359999999997,90.0,90.0,90.0
3409,Au4Ca4Ga4,206.881,62,4.59387,7.332085,7.780131,90.0,90.0,90.0
3410,Rh1Si3Tb1,356.378,107,5.691896,5.691896,5.691896,136.9633,136.9633,62.49449
3411,Ir6Sn6Zr6,291.752,190,7.419373,7.419353,7.386878,90.0,90.0,120.0001
3412,Cl6K2Sn1,147.679,225,7.285707,7.285707,7.285707,60.0,60.0,60.0
3413,Ga3Pt3Th3,206.086,189,7.494689,7.494689,4.147894,90.0,90.0,120.0007
3414,C1In1Pt3,143.78,221,4.228184,4.228184,4.228184,90.0,90.0,90.0
3415,Ga4La4Pd8,211.824,62,5.927867,7.137688,7.716231,90.0,90.0,90.0
3416,Ba4Ge8P8,290.175,105,7.709965,7.709965,8.602867,90.0,90.0,90.0
3417,Co8N4Zr16,387.372,227,8.612411999999999,8.612411999999999,8.612411999999999,60.0,60.0,60.0
3418,Li1Mg4Si2,353.436,123,4.532019,4.532019,6.597111,90.0,90.0,90.0
3419,Al3Cu3Er3,291.908,189,6.9922249999999995,6.99211,4.008351,90.0,90.0,120.0005
3420,H6Na2Pt1,286.599,225,5.174056,5.174056,5.174056,60.0,60.0,60.0
3421,K2Sb2Zn2,218.265,194,4.566427,4.566427,10.64538,90.0,90.0,120.0012
3422,Mn1Pd2Sb1,220.529,225,4.604406,4.604406,4.604406,60.0,60.0,60.0
3423,Ge6Ir4Tb6,259.976,63,5.678007,5.678007,14.34511,90.0,90.0,135.364
3424,As1Br3Ca3,268.924,221,5.962227,5.962227,5.962227,90.0,90.0,90.0
3425,Ca3O12S3,486.171,180,7.046128,7.046128,6.361397,90.0,90.0,120.0
3426,Cd4O12Sn4,416.95,62,5.605846,5.730702,8.122128,90.0,90.0,90.0
3427,Bi1Mg1Ni1,244.315,216,4.421985,4.421985,4.421985,60.0,60.0,60.0
3428,Br6Rb2Te1,105.098,225,7.847182,7.847182,7.847182,60.0,60.0,60.0
3429,I6Pd1Rb2,82.9641,225,8.066964,8.066964,8.066964,60.0,60.0,60.0
3430,Li8O8Pb2,406.839,63,5.60212,5.60212,6.632694,90.0,90.0,98.12303
3431,Ir4S4Sb4,358.801,29,6.098604,6.083503,6.098352,90.0,90.0,90.0
3432,Ca1Ge2Ir2,314.742,139,5.977921,5.977921,5.977921,139.0715,139.0715,59.26584
3433,Ag2Hg1I4,88.3346,111,6.489261,6.544187,6.544187,90.0,90.0,90.0
3434,Ga2Hf6Ni1,280.317,189,7.763559,7.763559,3.327419,90.0,90.0,119.9944
3435,Cr1Ni1Sb1,280.86,216,4.230869,4.230869,4.230869,60.0,60.0,60.0
3436,C1Sc3Sn1,494.884,221,4.613402,4.613402,4.613402,90.0,90.0,90.0
3437,Al2Fe1Zr6,340.708,189,8.000314,8.000314,3.281865,90.0,90.0,120.0049
3438,Ca4Nb4O14,639.795,227,7.451117,7.451117,7.451117,60.0,60.0,60.0
3439,Mg2O6V2,394.071,65,5.82568,5.82568,5.33683,90.0,90.0,126.9544
3440,Ni16Si7Zr6,484.747,225,8.068668,8.068668,8.068668,60.0,60.0,60.0
3441,P4Ru4Ta4,417.513,62,3.7378080000000002,6.347051,7.207889,90.0,90.0,90.0
3442,Cd4Rh4Tb16,197.223,216,9.631757,9.631757,9.631757,60.0,60.0,60.0
3443,Cu2Er1In1,254.453,225,4.658858,4.658858,4.658858,60.0,60.0,60.0
3444,B4C2U2,562.351,51,3.677638,4.150935,6.06872,90.0,90.0,90.0
3445,Ca4O12Zr4,599.72,62,5.832959,5.636201,8.101937,90.0,90.0,90.0
3446,Ir4Si4Tb2,303.291,129,4.122084,4.122084,9.766468,90.0,90.0,90.0
3447,Co2P4W2,466.175,194,3.288782,3.288798,11.23232,90.0,90.0,119.9998
3448,Ba2Pb12Rh6,171.774,63,14.34357,14.34357,4.581932,90.0,90.0,146.2115
3449,Ca1Pt1Si3,329.691,107,5.769928,5.769928,5.769928,136.9168,136.9168,62.56613
3450,H1Se1Y1,427.679,187,3.847358,3.847419,3.923945,90.0,90.0,119.9995
3451,Ba2Mo6Te6,217.996,176,9.678673,9.678649,4.644619,90.0,90.0,120.0007
3452,In3Pd3Th3,198.088,189,7.692699,7.692907,4.281812,90.0,90.0,119.9991
3453,Ag2S6Ta2,271.026,36,7.384169,7.384169,7.843247,90.0,90.0,153.2083
3454,Dy4Mg2Si4,365.483,127,7.171915,7.171915,4.209734,90.0,90.0,90.0
3455,Ho3Pt3Sn3,239.248,189,7.5472339999999996,7.547192,3.985889,90.0,90.0,120.0002
3456,Ge4Pd8Y4,267.728,62,5.618252,7.42004,7.130895,90.0,90.0,90.0
3457,H1Ho1Se1,363.528,187,3.817657,3.817657,3.891573,90.0,90.0,119.9994
3458,Br6Rb2Sn1,99.9432,225,7.836371,7.836371,7.836371,60.0,60.0,60.0
3459,Al1Cu2Sc1,379.166,225,4.418938,4.418938,4.418938,60.0,60.0,60.0
3460,Gd4O14Ti4,555.168,227,7.294003,7.294003,7.294003,60.0,60.0,60.0
3461,Cu2Hf10Pb6,238.649,193,8.711469,8.711469,5.883551,90.0,90.0,119.9968
3462,Ge4Mg2Y4,384.394,127,7.278123,7.278123,4.254378,90.0,90.0,90.0
3463,In3Rh2Ti3,329.586,189,7.329158,7.329158,3.137766,90.0,90.0,119.9718
3464,F4Mg1Rb2,300.693,139,7.584765,7.584765,7.584765,148.4026,148.4026,45.29146
3465,Cs3H9Mg3,317.169,166,8.259662,8.259662,8.259662,44.31396,44.31396,44.31396
3466,B1Hf1Rh3,397.593,221,4.106978,4.106978,4.106978,90.0,90.0,90.0
3467,Ge1O3Pb1,458.604,221,3.896657,3.896657,3.896657,90.0,90.0,90.0
3468,Al1C1Ti3,620.447,221,4.239906,4.239906,4.239906,90.0,90.0,90.0
3469,Cr2Er2O8,432.161,141,5.944787,5.944787,5.944787,106.0188,106.0188,116.6216
3470,I10In2Sn4,102.118,140,10.04304,10.04304,10.04304,127.2013,127.2013,77.92252
3471,N2Te1Th2,209.131,139,7.384253,7.384253,7.384253,146.5871,146.5871,47.97553
3472,Cu2Sn2Y2,307.628,194,4.553069,4.55289,7.446239,90.0,90.0,120.0013
3473,Al2Hg1S4,273.035,82,6.521455,6.521455,6.521455,128.855,128.855,75.24404
3474,As1Cd1Li1,286.923,216,4.473683,4.473683,4.473683,60.0,60.0,60.0
3475,Bi4O14Ti4,444.704,227,7.406444,7.406444,7.406444,60.0,60.0,60.0
3476,La1Mg1Ni4,281.534,216,5.053734,5.053734,5.053734,60.0,60.0,60.0
3477,Nb6Rh2Se12,330.158,182,6.05334,6.053155,12.82008,90.00066,89.98664,120.0011
3478,Ag2Ho2Pb2,196.552,186,4.823185,4.823231,7.451479,90.0,90.0,119.9997
3479,Ni4Sc6Si6,548.708,63,5.263768,5.263768,13.22724,90.0,90.0,135.2601
3480,Pt3Sn3Y3,256.531,189,7.567087,7.567087,4.009628,90.0,90.0,120.0
3481,Mn2Se6Th2,229.683,63,6.894629,6.894629,9.483041,90.0,90.0,145.2812
3482,Ag1Cd1Sb1,92.0886,216,4.727152,4.727152,4.727152,60.0,60.0,60.0
3483,In4Mg2O8,449.344,227,6.379315,6.379315,6.379315,60.0,60.0,60.0
3484,Ba2Ge2Zn2,246.42,194,4.488487,4.488487,9.746548,90.0,90.0,120.0007
3485,O14Tb4Ti4,562.653,227,7.247124,7.247124,7.247124,60.0,60.0,60.0
3486,Bi1Ho1Pt1,199.908,216,4.730487,4.730487,4.730487,60.0,60.0,60.0
3487,Dy4Ge6Ir7,335.074,229,7.251037,7.251037,7.251037,109.4712,109.4712,109.4712
3488,As2Ca1Fe2,420.853,139,5.785586,5.785586,5.785586,139.4235,139.4235,58.72962
3489,Ge3Hf3Os3,332.676,189,6.73222,6.73222,3.7888,90.0,90.0,120.0004
3490,Co8Ge26Tb6,362.35,223,8.757403,8.757403,8.757403,90.0,90.0,90.0
3491,As2Pb6Zr10,298.157,193,8.798127,8.79811,6.046237,90.0,90.0,119.9999
3492,Al9Co2Sr1,533.865,191,7.853698,7.853699,3.87792,90.0,90.0,120.0
3493,In2Te4Zn1,166.235,82,7.674073,7.674073,7.674073,132.2337,132.2337,69.86023
3494,Er2Pd6S8,233.532,223,6.689869,6.689869,6.689869,90.0,90.0,90.0
3495,B4C4La2,672.767,127,5.416538,5.416538,4.031284,90.0,90.0,90.0
3496,Dy1Pt2Si2,236.886,139,5.690605,5.690605,5.690605,136.6377,136.6377,62.99592
3497,As2Cs1Rh2,246.547,139,7.915452,7.915452,7.915452,150.4284,150.4284,42.31292
3498,Li2Nb2O4,656.854,194,2.934814,2.934814,10.553090000000001,90.0,90.0,120.0003
3499,Bi1Ca3N1,353.904,221,4.918205,4.918205,4.918205,90.0,90.0,90.0
3500,In1Ni4Zr1,342.195,216,4.876959,4.876959,4.876959,60.0,60.0,60.0
3501,Co4Cu2S8,368.209,227,6.720294,6.720294,6.720294,60.0,60.0,60.0
3502,Al6C2Zr10,430.742,193,8.342362,8.342362,5.625433,90.0,90.0,120.0002
3503,B2Ca1Rh3,503.968,191,5.5854,5.5854,2.9204309999999998,90.0,90.0,119.9988
3504,Ba1Cd2Ge2,182.366,139,6.711584,6.711584,6.711584,138.7475,138.7475,59.76006
3505,Cd4O12V4,523.022,62,5.3348510000000005,5.382085,7.767906,90.0,90.0,90.0
3506,Ge3Ru3Sc3,437.47,189,7.064381,7.064381,3.479808,90.0,90.0,120.0011
3507,Ge4Ir4Th2,280.277,129,4.302943,4.302943,10.16976,90.0,90.0,90.0
3508,Ga4Pd4Tb4,156.487,62,4.483378,6.95012,7.679735,90.0,90.0,90.0
3509,F20K2Tb6,368.215,225,8.297274,8.297274,8.297274,60.0,60.0,60.0
3510,Co2Dy2Ge4,288.199,63,8.380821,8.380821,4.152355,90.0,90.0,151.3899
3511,C2Ga2Sc4,468.655,194,3.3551320000000002,3.355088,14.85043,90.0,90.0,120.0004
3512,Na2Nb2Se4,320.755,194,3.580031,3.58001,15.04301,90.0,90.0,120.0002
3513,Co8Er6Ge26,362.848,223,8.709936,8.709936,8.709936,90.0,90.0,90.0
3514,Cd4Pd2Sr2,182.617,63,5.80184,5.80184,8.191256,90.0,90.0,134.6017
3515,Cs2I6Pt1,83.5196,225,8.306282,8.306282,8.306282,60.0,60.0,60.0
3516,Ge4Rh4Sc4,368.066,62,4.179052,6.629466,7.459128,90.0,90.0,90.0
3517,Ca2In8Rh2,249.846,51,4.264652,7.513548,8.751011,90.0,90.0,90.0
3518,Bi1Cu1Mg1,219.584,216,4.553322,4.553322,4.553322,60.0,60.0,60.0
3519,Al6Os2U4,287.226,194,5.568973,5.5689779999999995,8.917444,90.0,90.0,120.0
3520,Al2N2Zr6,487.761,63,6.02598,6.02598,9.046972,90.0,90.0,147.3847
3521,Ag3La3Mg3,169.114,189,7.8966069999999995,7.8966069999999995,4.490683,90.0,90.0,120.0029
3522,Dy6Ge26Ru8,305.722,223,9.018562,9.018562,9.018562,90.0,90.0,90.0
3523,Cu4Mg4P4,438.951,62,3.842898,6.526765,7.185602,90.0,90.0,90.0
3524,Bi1Pd1Y1,224.001,216,4.748737,4.748737,4.748737,60.0,60.0,60.0
3525,O8V2Y2,473.756,141,6.016215,6.016215,6.016215,106.2521,106.2521,116.1211
3526,In2La4Pd4,205.584,127,7.956857,7.956857,4.013367,90.0,90.0,90.0
3527,B1Ce1Rh3,327.231,221,4.225526,4.225526,4.225526,90.0,90.0,90.0
3528,Ag4Se4Tl4,129.33,62,4.702841,8.298452,7.827993,89.99964,90.00004,90.00005
3529,Ba4Mn4O12,467.536,194,5.745325,5.745326,9.426285,90.0,90.0,120.0005
3530,Er1In1Pt4,228.635,216,5.352915,5.352915,5.352915,60.0,60.0,60.0
3531,Al3Er3Pd3,246.005,189,7.217246,7.217246,3.904492,90.0,90.0,120.0001
3532,Al16Ni7Sc6,527.298,225,8.596312,8.596312,8.596312,60.0,60.0,60.0
3533,Ca7Cl2H12,544.53,174,9.311471,9.311484,3.679377,90.0,90.0,120.0003
3534,Ge2Ho1Ru2,313.015,139,5.735589,5.735589,5.735589,136.3093,136.3093,63.50252
3535,Bi1Er1Pt1,198.26,216,4.720998,4.720998,4.720998,60.0,60.0,60.0
3536,Cu2Ge2Sr1,321.144,139,5.961997,5.961997,5.961997,137.6115,137.6115,61.49846
3537,Cl6Cs2Sn1,107.197,225,7.642642,7.642642,7.642642,60.0,60.0,60.0
3538,Al1Au2Hf1,163.698,225,4.658183,4.658183,4.658183,60.0,60.0,60.0
3539,B2Ba1Rh2,333.403,139,6.366653,6.366653,6.366653,144.0051,144.0051,51.81965
3540,Br3Cs1Pb1,124.309,221,5.987692,5.987692,5.987692,90.0,90.0,90.0
3541,Dy3Pb3Pd3,203.826,189,7.860492,7.860426,3.857176,90.0,90.0,120.0003
3542,Dy1Pd2Si2,323.701,139,5.751112,5.751112,5.751112,137.6881,137.6881,61.38096
3543,Mn2O3Ta1,411.825,191,5.048856,5.048688,3.146938,90.0,90.0,120.0011
3544,Br6K2Pt1,121.745,225,7.452654,7.452654,7.452654,60.0,60.0,60.0
3545,Ga2O12Tb6,383.808,36,7.175909,7.175909,5.468902,90.0,90.0,102.8216
3546,As2Bi2O8,317.46,88,6.969832,6.969832,6.969832,136.5724,136.5724,63.09657
3547,Al2Ba1Si2,303.827,139,6.99057,6.99057,6.99057,144.6857,144.6857,50.8031
3548,La4O14Ti4,549.063,227,7.500222,7.500222,7.500222,60.0,60.0,60.0
3549,Cl6Pd1Rb2,157.893,225,7.179368,7.179368,7.179368,60.0,60.0,60.0
3550,Ca4O14Ta4,543.52,227,7.467797,7.467797,7.467797,60.0,60.0,60.0
3551,Al6C8Hf4,649.909,194,3.335577,3.335577,22.15516,90.0,90.0,119.9989
3552,Ag8Pd24Se8,191.481,205,8.74529,8.74529,8.74529,90.0,90.0,90.0
3553,Cr4O12W2,592.629,136,4.655539,4.655539,9.062557,90.0,90.0,90.0
3554,C1La3Tl1,228.675,221,5.290363,5.290363,5.290363,90.0,90.0,90.0
3555,F4K2Zn1,343.921,139,7.197227,7.197227,7.197227,147.2084,147.2084,47.05535
3556,Al16Pd7Sc6,415.225,225,8.854901,8.854901,8.854901,60.0,60.0,60.0
3557,Dy2Ga8Ni2,308.494,63,7.895044,7.895044,6.542774,90.0,90.0,150.0601
3558,Ag2P2Sr2,287.557,194,4.467421,4.467267,8.269905,90.0,90.0,120.0011
3559,As4Er4Pt4,240.187,194,4.275662,4.276034,15.02646,90.0,90.0,119.9971
3560,Ag4Er4Se8,196.569,19,4.194227,6.921586,13.75239,90.0,90.00008,90.0
3561,Dy4O14Ti4,558.223,227,7.228327,7.228327,7.228327,60.0,60.0,60.0
3562,Ga3Pt3Zr3,308.879,189,7.158764,7.158764,3.606954,90.0,90.0,120.0006
3563,Ge6Ir7Tb4,334.954,229,7.266202,7.266202,7.266202,109.4712,109.4712,109.4712
3564,Ge26Ho6Os8,309.205,223,9.044685,9.044685,9.044685,90.0,90.0,90.0
3565,Co2Nb8Si2,466.859,124,6.20503,6.20503,5.051069,90.0,90.0,90.0
3566,Fe1Ru2Si1,507.291,225,4.187105,4.187105,4.187105,60.0,60.0,60.0
3567,Dy2O8P2,460.651,141,5.77854,5.77854,5.77854,105.973,105.973,116.72
3568,B4C4Y2,751.669,131,3.7976929999999998,3.7976929999999998,7.242818,90.0,90.0,90.0
3569,Ge4Nb4Rh4,406.328,62,3.860247,6.498547,7.49237,90.0,90.0,90.0
3570,Al2Hf6Pt1,274.974,189,7.944484,7.944484,3.335014,90.0,90.0,119.9973
3571,Cs2I6Sn2,108.467,127,8.917672,8.917672,6.390962,90.0,90.0,90.0
3572,As4Pd20Sb4,165.006,227,8.72739,8.72739,8.72739,60.0,60.0,60.0
3573,Au7I1P10,244.668,189,6.270441,6.27042,11.42389,90.0,90.0,120.0001
3574,Nb4O14Sn4,556.831,227,7.600306,7.600306,7.600306,60.0,60.0,60.0
3575,F8Pd2Sr2,295.776,140,6.876141,6.876141,6.876141,129.2375,129.2375,74.62865
3576,Fe1Te2Zr6,338.336,189,7.871092,7.871092,3.582372,90.0,90.0,119.9975
3577,Co2Rh4S8,348.721,227,7.083857,7.083857,7.083857,60.0,60.0,60.0
3578,La4Rh4Si4,201.151,198,6.401184,6.401184,6.401184,90.0,90.0,90.0
3579,Ni1P4Si3,559.506,121,6.371916,6.371916,6.371916,131.8807,131.8807,70.41745
3580,B8Mo8Os4,530.251,58,3.087277,7.61066,9.66601,90.0,90.0,90.0
3581,O14Y4Zr4,555.027,227,7.498894,7.498894,7.498894,60.0,60.0,60.0
3582,Cu2O4Sc2,440.825,194,3.290721,3.290721,11.47446,90.0,90.0,120.0032
3583,Ba1P2Ru2,331.402,139,6.715016,6.715016,6.715016,144.726,144.726,50.74296
3584,Al2C6Ta8,451.396,194,3.123482,3.123469,24.81031,90.0,90.0,120.0001
3585,Al4Au4Th2,257.421,129,4.443101,4.443101,10.48149,90.0,90.0,90.0
3586,Ni2O12Ta4,481.397,136,4.786348,4.786348,9.223593,90.0,90.0,90.0
3587,Mg2O6V2,460.881,36,5.784099,5.784099,5.302841,90.0,90.0,125.171
3588,Al2C2V4,699.868,194,2.920523,2.920514,13.2284,90.0,90.0,120.0001
3589,P4Ru4Zr4,481.854,62,3.888292,6.479483,7.348879,90.0,90.0,90.0
3590,Cl6K2Pt1,160.623,225,7.077183,7.077183,7.077183,60.0,60.0,60.0
3591,S12Sc4Y4,359.409,33,6.438876,7.055819,9.640546,89.99993,90.00008,89.99958
3592,B4Li8Pd12,284.14,212,6.815343,6.815343,6.815343,90.0,90.0,90.0
3593,Bi4O14Ru4,463.685,227,7.349628,7.349628,7.349628,60.0,60.0,60.0
3594,Ca4Mn4O12,677.065,62,5.411901,5.33255,7.568986,90.0,90.0,90.00032
3595,Al2Li1Rh1,469.351,225,4.250391,4.250391,4.250391,60.0,60.0,60.0
3596,Co4Ge4V4,476.623,62,3.630525,6.08941,6.939696,90.0,90.0,90.0
3597,C2K8O8,296.98,86,7.215037,7.215037,5.524196,90.0,90.0,90.0
3598,C2Mg2N4,1049.98,122,4.428613,4.428613,4.428613,119.0198,119.0198,91.7064
3599,Ce1Co1Si3,463.466,107,5.525117,5.525117,5.525117,136.5438,136.5438,63.14069
3600,O12Pb4Tc4,384.762,227,7.435785,7.435785,7.435785,60.0,60.0,60.0
3601,Ag1In5Se8,166.805,111,5.866124,5.866124,12.10666,90.0,90.0,90.0
3602,Al1C1La3,267.661,221,5.249936,5.249936,5.249936,90.0,90.0,90.0
3603,N4Re8Zr16,336.738,227,8.845032,8.845032,8.845032,60.0,60.0,60.0
3604,Mn1Pd2Sn1,242.336,225,4.598122,4.598122,4.598122,60.0,60.0,60.0
3605,Mg4O8Si2,890.931,227,5.763328,5.763328,5.763328,60.0,60.0,60.0
3606,Er2O8P2,470.999,141,5.734327,5.734327,5.734327,105.9558,105.9558,116.757
3607,Bi1Li1Mg1,230.92,216,4.816835,4.816835,4.816835,60.0,60.0,60.0
3608,Al4Hg2S8,323.394,227,7.355043,7.355043,7.355043,60.0,60.0,60.0
3609,C2Tl2Zr4,364.831,194,3.391312,3.3913,15.14376,90.0,90.0,120.0001
3610,Ba4Cu8S8,288.937,62,4.069431,9.342622,10.43982,90.0,90.0,90.0
3611,In1La3N1,275.971,221,5.196461,5.196461,5.196461,90.0,90.0,90.0
3612,Bi2Er10Pt4,149.37,140,8.729518,8.729518,8.729518,127.5459,127.5459,77.36186
3613,B6Ni20Ta3,447.456,225,7.443824,7.443824,7.443824,60.0,60.0,60.0
3614,Li4Sb4Sr4,261.953,62,4.847402,8.08262,8.510857,90.0,90.0,90.0
3615,Br2La10Sb6,232.404,193,9.721195,9.721228,6.845555,90.0,90.0,120.0002
3616,Cd4O12Ti4,550.635,62,5.509657,5.39256,7.763351,90.00003,90.00157,89.99978
3617,C1In1Y3,381.722,221,4.93344,4.93344,4.93344,90.0,90.0,90.0
3618,Co2Si4Y2,453.088,63,8.234885,8.234885,3.974742,90.0,90.0,151.6306
3619,Al2Sc4Si4,575.027,127,6.653913,6.653913,4.077701,90.0,90.0,90.0
3620,Er4Ni4P4,363.638,194,3.884773,3.884773,14.97929,90.0,90.0,119.9992
3621,Cr2F8Sr2,354.353,140,6.879356,6.879356,6.879356,130.4498,130.4498,72.68866
3622,Co2Si1V1,495.594,225,4.034647,4.034647,4.034647,60.0,60.0,60.0
3623,Er6F20K2,376.262,225,8.173538,8.173538,8.173538,60.0,60.0,60.0
3624,Dy3In3Ni3,222.433,189,7.414331,7.414331,3.774319,90.0,90.0,120.002
3625,Nb6Sb4Te10,323.395,217,8.603799,8.603799,8.603799,109.4712,109.4712,109.4712
3626,Cr4Mg2O8,620.679,227,5.99792,5.99792,5.99792,119.9528,119.9528,90.08175
3627,Ba1Mg4Si3,441.897,123,4.623058,4.623058,8.611737,90.0,90.0,90.0
3628,Ga4Ho4O12,463.414,62,5.271892,5.577386,7.58857,90.0,90.0,90.0
3629,Ge1Li2Zn1,412.393,216,4.351403,4.351403,4.351403,60.0,60.0,60.0
3630,O28P8Zr4,576.013,205,8.551967,8.551967,8.551967,90.0,90.0,90.0
3631,Mg4O12Se4,500.358,62,5.074798,5.989643,7.767831,90.0,90.0,90.0
3632,Cr4Hg2O8,372.535,227,6.255808,6.255808,6.255808,60.0,60.0,60.0
3633,Ni12P7Sc2,458.156,174,8.937228,8.937398,3.5859449999999997,90.0,90.0,120.0007
3634,C1Ru3Zr1,544.251,221,4.090318,4.090318,4.090318,90.0,90.0,90.0
3635,Ga1S8Ti4,372.934,216,7.249928,7.249928,7.249928,60.0,60.0,60.0
3636,Co2In4S8,288.834,227,7.5724350000000005,7.5724350000000005,7.5724350000000005,60.0,60.0,60.0
3637,Al4S8Zn2,470.932,227,7.102699,7.102699,7.102699,60.0,60.0,60.0
3638,B4Si2V10,793.699,140,6.807554,6.807554,6.807554,129.3412,129.3412,74.46212
3639,Pb2S12Ta6,284.197,193,5.845849,5.845849,15.05629,90.0,90.0,120.0001
3640,Al1Er3N1,340.389,221,4.71741,4.71741,4.71741,90.0,90.0,90.0
3641,O8Pr2V2,387.767,141,6.21582,6.21582,6.21582,106.0771,106.0771,116.4962
3642,As1Pt5Zn1,257.569,123,3.929188,3.929188,7.13507,90.0,90.0,90.0
3643,Os2Si2Th1,364.171,139,5.826668,5.826668,5.826668,137.2147,137.2147,62.10794
3644,Cd2Mn4O8,389.656,141,6.509238,6.509238,6.509238,125.5386,125.5386,80.64788
3645,Bi4F16Rb4,218.457,227,8.558073,8.558073,8.558073,60.0,60.0,60.0
3646,Al3Ni2Th1,393.944,191,5.374391,5.374471,4.027551,90.0,90.0,119.9995
3647,Ca1Mn1O3,694.398,221,3.807624,3.807624,3.807624,90.0,90.0,90.0
3648,Ca4Sn4Sr4,223.171,62,5.192398,8.471796,9.696972,90.0,90.0,90.0
3649,Ga3Mg3Sm3,312.142,189,7.397666,7.397666,4.488146,90.0,90.0,120.0014
3650,O28P8Ti4,673.481,205,8.25417,8.25417,8.25417,90.0,90.0,90.0
3651,Ag6As2O8,211.13,218,6.253929,6.253929,6.253929,90.0,90.0,90.0
3652,K1Na2Sb1,226.707,225,5.489384,5.489384,5.489384,60.0,60.0,60.0
3653,Ge1Li1Ni2,442.138,225,4.012125,4.012125,4.012125,60.0,60.0,60.0
3654,Cu2Ho1In1,248.883,225,4.676375,4.676375,4.676375,60.0,60.0,60.0
3655,Bi1Pt1Yb1,150.638,216,4.815247,4.815247,4.815247,60.0,60.0,60.0
3656,Ag2S6Ta2,275.522,63,7.379543,7.379543,7.843543,90.0,90.0,153.1965
3657,Al4Pb2S8,261.676,66,6.05753,6.05753,10.60783,90.0,90.0,120.987
3658,Au2Ge2Sc2,261.662,186,4.402129,4.402003,6.995071,90.0,90.0,120.0009
3659,Ir1Si3Tb1,338.967,107,5.707024,5.707024,5.707024,136.9271,136.9271,62.55031
3660,Ca1Ge2Rh2,348.95,139,5.987085,5.987085,5.987085,139.1683,139.1683,59.11831
3661,Ag2In2S4,204.997,122,7.126518,7.126518,7.126518,130.5076,130.5076,72.59651
3662,F6K3W1,245.086,225,6.500065,6.500065,6.500065,60.0,60.0,60.0
3663,Dy2Mg2Sn2,261.326,139,8.581164,8.581164,8.581164,150.1706,150.1706,42.69103
3664,Ho1Ir1Si3,329.478,107,5.695838,5.695838,5.695838,137.0408,137.0408,62.37527
3665,Ge4Ir4Tb2,241.009,129,4.211794,4.211794,10.07219,90.0,90.0,90.0