,full_formula,DebyeTemp,spacegroup.number,structure.lattice.a,structure.lattice.b,structure.lattice.c,structure.lattice.alpha,structure.lattice.beta,structure.lattice.gamma
4492,As4Dy4Pd4,278.477,62,4.138831,7.076383,7.951112,90.0,90.0,90.0
4493,Cu2Er1Si2,410.773,139,5.74145,5.74145,5.74145,139.8534,139.8534,58.07599
4494,Ge4Rh4Y4,321.198,62,4.313606,6.93911,7.57593,90.0,90.0,90.0
4495,Hg2Pb2Sr2,152.569,186,5.119992,5.119992,8.277201,90.0,90.0,120.009
4496,H4In4O8,530.822,205,5.364661,5.364661,5.364661,90.0,90.0,90.0
4497,Al1C1Co3,519.402,221,3.739385,3.739385,3.739385,90.0,90.0,90.0
4498,Er1P2Ru2,436.602,139,5.52877,5.52877,5.52877,137.1276,137.1276,62.24182
4499,Ho2Si2Ti2,357.668,129,4.039495,4.039495,7.664883,90.0,90.0,90.0
4500,Au1Mg1Sn1,211.157,216,4.624661,4.624661,4.624661,60.0,60.0,60.0
4501,Pd8Si4Tb4,274.666,62,5.554478,6.9549389999999995,7.360778,90.0,90.0,90.0
4502,As4Cu2Y2,349.15,129,3.905055,3.905055,9.933032,90.0,90.0,90.0
4503,Ce2O8Si2,497.877,141,5.905454,5.905454,5.905454,106.3642,106.3642,115.8817
4504,Au4In2Tb4,181.905,127,7.935216,7.935216,3.775152,90.0,90.0,90.0
4505,Dy1Ni2Si2,405.448,139,5.46417,5.46417,5.46417,137.3655,137.3655,61.87616
4506,Al16Hf6Os7,335.161,225,8.702213,8.702213,8.702213,60.0,60.0,60.0
4507,H6Li2Pt1,377.481,225,4.704338,4.704338,4.704338,60.0,60.0,60.0
4508,Hf4O12Sr4,470.877,63,5.815075,5.815075,8.223889,90.0,90.0,90.60841
4509,Ba4Ge8S20,216.389,227,10.75618,10.75618,10.75618,60.0,60.0,60.0
4510,Ag2Al1Sc1,234.366,225,4.702923,4.702923,4.702923,60.0,60.0,60.0
4511,Cd4O8Rb8,197.381,60,6.354861,6.532948,10.71727,90.0,90.0,90.0
4512,Cd2Lu4S8,235.908,227,7.868625,7.868625,7.868625,60.0,60.0,60.0
4513,O6Sn2Sr2,498.57,140,5.8963719999999995,5.8963719999999995,5.8963719999999995,121.0955,121.0955,88.11283
4514,Cu7Hf6Zn16,282.777,225,8.484949,8.484949,8.484949,60.0,60.0,60.0
4515,Br3Cs1Hg1,122.705,221,5.676261,5.676261,5.676261,90.0,90.0,90.0
4516,Ba1H3Li1,449.638,221,4.006815,4.006815,4.006815,90.0,90.0,90.0
4517,K1O3U1,408.192,221,4.375357,4.375357,4.375357,90.0,90.0,90.0
4518,Cl6Rb2Se1,156.036,225,7.304391,7.304391,7.304391,60.0,60.0,60.0
4519,Mo2O12Rh4,519.627,136,4.6806,4.6806,9.243972,90.0,90.0,90.0
4520,La4Pb2Pd4,183.407,127,8.097343,8.097343,3.963568,90.0,90.0,90.0
4521,Ca4O12Si4,769.736,62,5.103393,5.122291,7.191258,90.0,90.0,90.00086
4522,Ge2Ir3La1,337.511,191,5.700494,5.700494,3.809681,90.0,90.0,119.9976
4523,Nb8Ni2Si2,464.113,124,6.260599,6.260599,4.977289,90.0,90.0,90.0
4524,Na4Pd2Se4,194.368,36,5.70371,5.70371,11.43066,90.0,90.0,141.7204
4525,Lu1Ru2Si2,378.088,139,5.524002,5.524002,5.524002,135.6915,135.6915,64.45764
4526,As4Ni4S4,396.919,198,5.684463,5.684463,5.684463,90.0,90.0,90.0
4527,Ca1O3Ti1,745.631,221,3.920003,3.920003,3.920003,90.0,90.0,90.0
4528,Al6Pt6Zr6,312.984,190,7.147587,7.147654,7.250133,90.0,90.0,119.9997
4529,C2In2Ti4,529.625,194,3.181539,3.181528,14.31045,90.0,90.0,120.0001
4530,Fe1H6Sr2,459.429,225,5.228799,5.228799,5.228799,60.0,60.0,60.0
4531,Rh4Si4Ta4,423.816,62,3.766177,6.423995,7.346985,90.0,90.0,90.0
4532,K2Mg5Sn3,194.685,139,12.44711,12.44711,12.44711,156.8588,156.8588,32.95709
4533,Er1Ru2Si2,390.134,139,5.561805,5.561805,5.561805,135.9524,135.9524,64.05386
4534,C8Gd4Mo4,469.534,62,3.445983,5.767583,10.8638,90.0,90.0,90.0
4535,Au2K2Se2,111.268,63,5.265288,5.265288,6.940843,90.0,90.0,102.5264
4536,Ca3Ir4Si4,305.273,217,6.434646,6.434646,6.434646,109.4712,109.4712,109.4712
4537,Al6B4Ru8,536.231,123,8.521997,8.521997,2.942206,90.0,90.0,90.0
4538,Nb5O9Sr2,552.793,123,4.18615,4.18615,12.15859,90.0,90.0,90.0
4539,Al16Hf6Pt7,367.899,225,8.72981,8.72981,8.72981,60.0,60.0,60.0
4540,Au4Ho10Sb2,160.118,140,8.622635,8.622635,8.622635,124.5713,124.5713,82.2493
4541,Rh4Si4Zr4,453.682,62,3.930233,6.598338,7.458678,90.0,90.0,90.0
4542,Cu4Si4Ti4,497.844,62,3.741084,6.319806,7.262204,90.0,90.0,90.0
4543,Er1Ir2Si2,377.396,139,5.708935,5.708935,5.708935,138.4562,138.4562,60.20507
4544,Rb12Sb4Se12,119.969,198,10.36482,10.36482,10.36482,90.0,90.0,90.0
4545,Dy1In1Pd2,210.333,225,4.788259,4.788259,4.788259,60.0,60.0,60.0
4546,Au3In3Tb3,211.981,189,7.788915,7.788915,3.9813419999999997,90.0,90.0,119.9999
4547,Br6K2Sn1,108.957,225,7.723589,7.723589,7.723589,60.0,60.0,60.0
4548,Bi4Pd6S4,155.318,199,7.282978,7.282978,7.282978,109.4712,109.4712,109.4712
4549,Ag2Ho1In1,165.072,225,4.927412,4.927412,4.927412,60.0,60.0,60.0
4550,K1P2Rh2,314.398,139,7.084786,7.084786,7.084786,147.8564,147.8564,46.09746
4551,Cd2In4S8,250.278,227,7.766205,7.766205,7.766205,60.0,60.0,60.0
4552,Ca1P2Pd2,350.544,139,5.670239,5.670239,5.670239,136.8588,136.8588,62.65541
4553,Al2Cl8Cu2,178.798,112,5.590034,5.590034,10.11003,90.0,90.0,90.0
4554,Pb2Pd4Y4,205.185,127,7.851684,7.851684,3.681359,90.0,90.0,90.0
4555,Ga6Hf6Pd6,291.769,190,7.199511,7.199511,6.927111,90.0,90.0,120.0005
4556,Ge2La1Pd2,267.757,139,5.9635110000000005,5.9635110000000005,5.9635110000000005,136.4526,136.4526,63.28138
4557,Al3Pd3Y3,267.734,189,7.244644,7.244599,3.968075,90.0,90.0,120.0002
4558,Al3Mg3Y3,419.851,189,7.37342,7.373463,4.542204,90.0,90.0,120.0002
4559,Ag2Ho2Sn2,234.584,186,4.762937,4.76276,7.38492,90.0,90.0,120.0012
4560,La2O2S1,355.779,164,4.106245,4.106247,7.026233,90.00032,89.99972,119.9982
4561,Mn4Nb4P4,549.414,62,3.68636,6.140397,6.948009,90.0,90.0,90.0
4562,Be1Cs1F3,309.649,221,4.036087,4.036087,4.036087,90.0,90.0,90.0
4563,La3O12P3,440.388,180,7.322129,7.322129,6.525389,90.0,90.0,120.0
4564,Cd4Ge4Sr4,242.651,62,4.651956,7.862823,8.640679,90.0,90.0,90.0
4565,Au1Ge1Ho1,191.645,216,4.598708,4.598708,4.598708,60.0,60.0,60.0
4566,Ca3O1Pb1,340.743,221,4.881411,4.881411,4.881411,90.0,90.0,90.0
4567,Mn4O14Sb4,553.606,227,7.273741,7.273741,7.273741,60.0,60.0,60.0
4568,C2Li4O6,701.613,193,4.658357,4.658316,5.387349,90.0,90.0,120.0003
4569,Ba4Hg4S8,180.944,26,4.293104,7.453659,14.62906,90.0,90.0,90.0
4570,Dy8O4S8,280.465,62,3.814429,6.748037,15.63071,90.0,90.0,90.0
4571,Er2Ga4Ni2,304.516,63,5.353772,5.353772,6.593629,90.0,90.0,134.6742
4572,N6Ta2Th2,467.275,63,5.618867,5.618867,7.84461,90.0,90.0,145.7033
4573,Al8Er2Ni2,424.062,63,7.905113,7.905113,6.576687,90.0,90.0,150.4027
4574,As1Fe1Li1,511.659,107,4.493439,4.493439,4.493439,140.8878,140.8878,56.50771
4575,Fe2N4W2,547.929,194,2.901595,2.901595,11.21822,90.0,90.0,119.9995
4576,Al4Cu2Mg2,465.724,63,5.0634689999999996,5.0634689999999996,7.075938,90.0,90.0,133.0468
4577,Al3Ho3Ni3,283.984,189,7.002795,7.002795,3.761844,90.0,90.0,120.0033
4578,Hf12N4Zn12,338.509,227,8.49857,8.49857,8.49857,60.0,60.0,60.0
4579,Mg2Ru2Sn8,285.671,140,7.546301,7.546301,7.546301,125.5282,125.5282,80.66491
4580,C2S2Zr4,566.056,194,3.434311,3.434311,12.262270000000001,90.0,90.0,119.9992
4581,Al2Ir1Li1,386.038,225,4.250279,4.250279,4.250279,60.0,60.0,60.0
4582,In4Pt2Sr2,199.29,63,5.920098,5.920098,8.006147,90.0,90.0,135.2128
4583,Mn4P4Zr4,457.237,62,3.716114,6.644266,8.036602,90.0,90.0,90.0
4584,P7Ru12Sc2,455.956,174,9.335858,9.335771,3.9083449999999997,90.0,90.0,119.9984
4585,O28P8Th4,352.618,205,9.205106,9.205106,9.205106,90.0,90.0,90.0
4586,Ga9Os3Tb3,306.247,221,6.428913,6.428913,6.428913,90.0,90.0,90.0
4587,Na2O8Pt6,345.265,223,5.756098,5.756098,5.756098,90.0,90.0,90.0
4588,Cd1Ni4Tb1,302.068,216,4.959993,4.959993,4.959993,60.0,60.0,60.0
4589,Al2Si2Y2,477.348,63,5.536336,5.536336,5.722061,90.0,90.0,137.6291
4590,Al1C1Tb3,152.907,221,5.367807,5.367807,5.367807,90.0,90.0,90.0
4591,C2Pb2Ti4,379.427,194,3.269674,3.269674,14.16835,90.0,90.0,119.9997
4592,B16C16Mg8,1004.33,64,7.226747,7.226747,7.463864,90.0,90.0,98.17816
4593,Ge1Mn1Rh2,303.499,225,4.325675,4.325675,4.325675,60.0,60.0,60.0
4594,O1Pb1Sr3,257.414,221,5.216353,5.216353,5.216353,90.0,90.0,90.0
4595,Cu1Li2Sb1,328.24,216,4.493804,4.493804,4.493804,60.0,60.0,60.0
4596,Ca2O6Ti2,749.293,140,5.454605,5.454605,5.518728,119.6184,119.6184,89.99646
4597,I6Pt1Rb2,88.2445,225,8.125461,8.125461,8.125461,60.0,60.0,60.0
4598,Al1Cu2Hf1,315.479,225,4.386192,4.386192,4.386192,60.0,60.0,60.0
4599,Ir2La1Si2,376.554,139,5.982149,5.982149,5.982149,139.6764,139.6764,58.34504
4600,Ir4Si4Y4,344.39,62,4.231397,6.863328,7.415648,90.0,90.0,90.0
4601,In1La1Pt4,203.075,216,5.457202,5.457202,5.457202,60.0,60.0,60.0
4602,Br4Na4O12,284.845,198,6.8139959999999995,6.8139959999999995,6.8139959999999995,90.0,90.0,90.0
4603,Ag2Te4Y2,185.667,113,7.239589,7.239589,4.627085,90.0,90.0,90.0
4604,Al4Au4Dy4,234.126,62,4.488589,7.220807,7.761596,90.0,90.0,90.0
4605,Cl2O2Y2,331.213,129,3.935237,3.935237,6.700363,90.0,90.0,90.0
4606,Fe2P2Ta8,276.916,124,6.230356,6.230356,5.132857,90.0,90.0,90.0
4607,Ru2V6Zr4,336.783,194,5.334564,5.334564,8.223565,90.0,90.0,119.9785
4608,Er4Pt4Zn4,200.021,62,4.078554,6.8861,8.112138999999999,90.0,90.0,90.0
4609,Cr2O8V2,541.132,63,5.049208,5.049208,6.193681,90.0,90.0,111.85210000000001
4610,B4C4Dy2,642.327,127,5.349977,5.349977,3.573814,90.0,90.0,90.0
4611,Co2K2O4,351.723,129,3.852621,3.852621,8.015295,90.0,90.0,90.0
4612,Er1Pt1Sb1,234.381,216,4.636343,4.636343,4.636343,60.0,60.0,60.0
4613,Li2Pd4Sn12,183.736,127,6.817221,6.817221,8.874133,90.0,90.0,90.0
4614,Cs2Na2S2,190.229,129,4.818586,4.818586,7.973457,90.0,90.0,90.0
4615,Cd2La4Rh4,188.324,127,7.758058,7.758058,3.971959,90.0,90.0,90.0
4616,Cu2Fe4Ge4,449.233,51,3.946035,4.89176,6.715503,90.0,90.0,90.0
4617,B2Li6N4,814.56,136,4.687384,4.687384,5.213915,90.0,90.0,90.0
4618,Ca4Pb4Sr4,183.387,62,5.227455,8.534222,9.787018,90.0,90.0,90.0
4619,C4N4Zn2,226.786,215,5.885435,5.885435,5.885435,90.0,90.0,90.0
4620,Dy4Rh4Zn4,225.451,62,4.003418,6.893677,8.05648,90.0,90.0,90.0
4621,C8Er8Re4,340.259,62,5.063996,6.546816,9.786129,90.0,90.0,90.0
4622,Ba2Pd2S4,190.471,63,6.385333,6.385333,5.707018,90.0,90.0,114.951
4623,Mo12N4Pt8,415.868,213,6.9031009999999995,6.9031009999999995,6.9031009999999995,90.0,90.0,90.0
4624,Co2In4Se8,211.992,227,7.960012,7.960012,7.960012,60.0,60.0,60.0
4625,Hf4Pd4Si4,373.744,62,3.879083,6.595392,7.6055340000000005,90.0,90.0,90.0
4626,H4N4Sr4,427.12,62,3.87981,5.291506,7.226859,90.0,90.0,90.0
4627,Ca6Ge26Rh8,301.329,223,9.063148,9.063148,9.063148,90.0,90.0,90.0
4628,In1Mn1Pd2,235.599,225,4.557607,4.557607,4.557607,60.0,60.0,60.0
4629,Cu4Hf3Si2,363.292,189,6.312297,6.31221,3.9645349999999997,90.0,90.0,120.0005
4630,As4Ir4La2,285.38,129,4.320209,4.320209,10.09985,90.0,90.0,90.0
4631,S12Sn4Sr4,273.43,62,3.960844,8.308173,14.42591,90.0,90.0,90.0
4632,Ge6La4Li4,332.199,63,9.838691,9.838691,7.066599,90.0,90.0,153.1907
4633,Ba1Os4Sb12,266.102,204,8.185585,8.185585,8.185585,109.4712,109.4712,109.4712
4634,Br6Cs2Dy2,140.365,127,8.019488,8.019488,5.666414,90.0,90.0,90.0
4635,Al2N6V8,663.5,194,2.948417,2.948416,22.63623,90.0,90.0,120.0
4636,F3Rb1V1,382.089,221,4.26656,4.26656,4.26656,90.0,90.0,90.0
4637,C4Nb12Ni12,452.238,227,8.052685,8.052685,8.052685,60.0,60.0,60.0
4638,Mg4P6Rh7,437.401,229,6.820019,6.820019,6.820019,109.4712,109.4712,109.4712
4639,Al40La2V4,515.868,227,10.3432,10.3432,10.3432,60.0,60.0,60.0
4640,Ca10H2Sn6,272.855,140,9.469098,9.469098,9.469098,128.4408,128.4408,75.91196
4641,Cu1Li2Sn1,312.828,216,4.489658,4.489658,4.489658,60.0,60.0,60.0
4642,Ba1Cu3O4,356.841,65,6.210758,6.210758,3.993618,90.0,90.0,126.684
4643,Au2Hf1In1,167.837,225,4.774391,4.774391,4.774391,60.0,60.0,60.0
4644,Cu2In1Y1,270.653,225,4.691955,4.691955,4.691955,60.0,60.0,60.0
4645,Bi2Li2Zn2,188.094,186,4.589779,4.589779,7.416925,90.0,90.0,120.002
4646,Al6C6Ho2,714.192,194,3.428709,3.428686,17.29006,90.0,90.0,120.0002
4647,F6Rb2Si1,189.788,225,6.072785,6.072785,6.072785,60.0,60.0,60.0
4648,Al7Cu16Zr6,424.651,225,8.449657,8.449657,8.449657,60.0,60.0,60.0
4649,Cd1Cu2Zr1,326.601,225,4.534145,4.534145,4.534145,60.0,60.0,60.0
4650,Ba2Cu2Sb2,235.771,194,4.654354,4.654286,9.492924,90.0,90.0,120.0005
4651,Ho1Pd1Sb1,115.787,216,4.758345,4.758345,4.758345,60.0,60.0,60.0
4652,Ca4N8O24,305.806,205,7.736114,7.736114,7.736114,90.0,90.0,90.0
4653,Ge2Ni4O8,564.104,227,5.879738,5.879738,5.879738,60.0,60.0,60.0
4654,Cu2In1Mn1,268.471,225,4.458986,4.458986,4.458986,60.0,60.0,60.0
4655,Cd2S8Sc4,309.897,227,7.711734,7.711734,7.711734,60.0,60.0,60.0
4656,Rh2Si2Tb1,420.976,139,5.744768,5.744768,5.744768,138.7129,138.7129,59.81297
4657,Al4La10Ru6,223.451,199,8.709393,8.709393,8.709393,109.4712,109.4712,109.4712
4658,F6Hf1K2,145.723,225,6.185416,6.185416,6.185416,60.0,60.0,60.0
4659,Ca2O6Pt2,428.704,63,5.255274,5.255274,7.44534,90.0,90.0,144.9097
4660,Ag12Na4S8,163.805,227,8.890148,8.890148,8.890148,60.0,60.0,60.0
4661,Se8Y4Zn2,238.114,227,8.136912,8.136912,8.136912,60.0,60.0,60.0
4662,O4Pd8Zr16,220.447,227,8.882627,8.882627,8.882627,60.0,60.0,60.0
4663,Al2K2O4,504.839,227,5.701839,5.701839,5.701839,60.0,60.0,60.0
4664,Dy4O14Tc4,497.247,227,7.309552,7.309552,7.309552,60.0,60.0,60.0
4665,F20K2Y6,435.444,225,8.277503,8.277503,8.277503,60.0,60.0,60.0
4666,Mn3Nb6O11,488.545,164,6.150609,6.150709,7.735905,89.99985,90.0,119.9995
4667,Al36Mg6Ti4,515.018,227,10.479,10.479,10.479,60.0,60.0,60.0
4668,Ge26Lu6Rh8,323.247,223,8.95392,8.95392,8.95392,90.0,90.0,90.0
4669,Ga2Sn6Zr10,350.341,193,8.733922,8.733922,5.904894,90.0,90.0,120.0
4670,In1N1Sc3,496.602,221,4.542609,4.542609,4.542609,90.0,90.0,90.0
4671,Ba2Hg2Sn2,169.299,194,5.034593,5.034593,9.656237,90.0,90.0,120.0007
4672,Ge26Ru8Y6,331.824,223,9.033982,9.033982,9.033982,90.0,90.0,90.0
4673,N1Ni3Zn1,401.788,221,3.724345,3.724345,3.724345,90.0,90.0,90.0
4674,Bi4Rh4Se4,270.025,198,6.37705,6.37705,6.37705,90.0,90.0,90.0
4675,Ga2Pt2Ti2,301.979,194,4.406553,4.405967,5.716558,90.0,90.0,120.0044
4676,Ni3P3Rh3,385.414,189,5.957111,5.957111,3.473092,90.0,90.0,120.0015
4677,Fe6Ge6Hf1,359.347,191,5.184942,5.184942,8.468449,90.0,90.0,119.9959
4678,C4Ni8Ta16,368.271,227,8.299803,8.299803,8.299803,60.0,60.0,60.0
4679,Ga3Ir3Th3,207.095,189,7.405397,7.405397,4.125157,90.0,90.0,120.0006
4680,Cs1F3Yb1,247.391,221,4.623573,4.623573,4.623573,90.0,90.0,90.0
4681,Cd3Er3Ga3,280.375,189,7.218607,7.218607,4.388755,90.0,90.0,120.0003
4682,Ba2Hf1S4,267.562,139,8.672855,8.672855,8.672855,146.7136,146.7136,47.78809
4683,Fe2Si2Tb1,463.156,139,5.431562,5.431562,5.431562,136.7337,136.7337,62.84798
4684,Dy6Ge26Os8,309.766,223,9.063788,9.063788,9.063788,90.0,90.0,90.0
4685,Dy4Ge4Ru4,260.38,62,4.449361,7.03919,7.190682,90.0,90.0,90.0
4686,Ce1Fe4P12,670.938,204,6.750668,6.750668,6.750668,109.4712,109.4712,109.4712
4687,Al4Au4Ca4,229.046,62,4.549905,7.325872,7.853677,90.0,90.0,90.0
4688,Ge2Ru2Tb1,317.501,139,5.7560970000000005,5.7560970000000005,5.7560970000000005,136.3638,136.3638,63.41847
4689,Cl6Sn1Tl2,113.556,225,7.264765,7.264765,7.264765,60.0,60.0,60.0
4690,Cd2Ga4O8,424.43,227,6.157912,6.157912,6.157912,60.0,60.0,60.0
4691,Au1Lu1Sn1,204.716,216,4.711901,4.711901,4.711901,60.0,60.0,60.0
4692,Re3Si3Zr3,450.028,189,7.02069,7.02069,3.433754,90.0,90.0,120.0
4693,Pd4Si4Zr4,437.668,62,3.904574,6.658708,7.6629819999999995,90.0,90.0,90.0
4694,Ba6Mn2N6,236.584,176,8.195333,8.194394,5.610869,90.0,90.0,119.9951
4695,Ir4La4Si4,193.241,198,6.421492,6.421492,6.421492,90.0,90.0,90.0
4696,O8P2Sc2,690.218,141,5.583954,5.583954,5.583954,106.0127,106.0127,116.6346
4697,Ni2Si2Tb1,407.744,139,5.480268,5.480268,5.480268,137.4068,137.4068,61.81272
4698,Au3In3Y3,234.878,189,7.760333,7.757329,3.98619,90.0,90.0,120.0128
4699,Nb6S12Sn2,355.674,193,5.847817,5.84781,14.75636,90.0,90.0,120.0
4700,Fe2Nb8P2,440.427,124,6.094191,6.094191,5.191244,90.0,90.0,90.0
4701,C2Nb4P2,607.817,194,3.311756,3.311697,11.65659,90.0,90.0,120.0006
4702,Ho4Rh4Si4,320.164,62,4.239071,6.869169,7.334558,90.0,90.0,90.0
4703,Er4Hf4O14,448.492,227,7.39407,7.39407,7.39407,60.0,60.0,60.0
4704,Hg4O14Sb4,394.071,227,7.459568,7.459568,7.459568,60.0,60.0,60.0
4705,Ag3Er3Ge3,179.341,189,7.320637,7.320637,4.093843,90.0,90.0,120.0017
4706,C2Ho1Ni1,489.071,38,3.751756,3.751756,3.539276,90.0,90.0,106.3722
4707,S8Sn2Sr4,218.107,40,6.417819,6.417819,10.1532,90.0,90.0,110.286
4708,Ru6Si4Th2,391.191,193,5.7369319999999995,5.736959,7.08981,90.0,90.0,120.0014
4709,Pd4Y4Zn4,210.958,62,4.080748,7.051722,8.174584,90.0,90.0,90.0
4710,Ru2Si2Tb1,398.979,139,5.599354,5.599354,5.599354,136.1068,136.1068,63.81527
4711,B6Hf3Ni20,425.575,225,7.492266,7.492266,7.492266,60.0,60.0,60.0
4712,C4Hf12Zn12,332.783,227,8.562876,8.562876,8.562876,60.0,60.0,60.0
4713,Bi1Ni1Sc1,291.816,216,4.456658,4.456658,4.456658,60.0,60.0,60.0
4714,K16Sb8Sn2,154.85,227,11.66224,11.66224,11.66224,60.0,60.0,60.0
4715,As1Ba1Li1,246.785,187,4.554644,4.554644,4.617383,90.0,90.0,120.0013
4716,In2Te4Tl2,132.03,140,7.116322,7.116322,7.116322,105.1575,105.1575,118.4932
4717,Bi2Cu2Yb2,186.777,194,4.628505,4.628505,8.257656,90.0,90.0,120.0013
4718,Bi2O2Se1,218.014,139,6.797999,6.797999,6.797999,146.4335,146.4335,48.2033
4719,Au1Li1Sb1,79.2545,216,4.558657,4.558657,4.558657,60.0,60.0,60.0
4720,Cd2La2Tl2,181.623,194,5.087996,5.087996,7.748831,90.0,90.0,119.9988
4721,Cu1Mn1Sb1,256.017,216,4.394843,4.394843,4.394843,60.0,60.0,60.0
4722,Ge26Ho6Rh8,335.625,223,8.987981,8.987981,8.987981,90.0,90.0,90.0
4723,Er4Ga4Rh4,208.087,62,4.295467,6.725443,7.720571,90.0,90.0,90.0
4724,K1Nb1O3,481.463,38,4.077819,4.077819,4.018193,90.0,90.0,90.19388
4725,Co2Hf1Sn1,315.546,225,4.520109,4.520109,4.520109,60.0,60.0,60.0
4726,Cu1Ga1Pt2,263.809,123,4.001614,4.001614,3.530478,90.0,90.0,90.0
4727,Ga12Ho4Pd1,321.351,229,7.44628,7.44628,7.44628,109.4712,109.4712,109.4712
4728,Co8N4Ta16,371.436,227,8.224436,8.224436,8.224436,60.0,60.0,60.0
4729,Pd2Sn1Tb1,160.516,225,4.8180309999999995,4.8180309999999995,4.8180309999999995,60.0,60.0,60.0
4730,As3Mn3Ru3,363.969,189,6.640038,6.640038,3.65733,90.0,90.0,120.0098
4731,K2O12Os4,451.611,227,7.244947,7.244947,7.244947,60.0,60.0,60.0
4732,Mn1Pt1Sn1,202.03,216,4.486973,4.486973,4.486973,60.0,60.0,60.0
4733,Co2Sn1Ti1,361.34,225,4.47437,4.47437,4.47437,60.0,60.0,60.0
4734,Ba4Ir4P4,232.25,198,6.514906,6.514906,6.514906,90.0,90.0,90.0
4735,Li1P1Zn1,493.746,216,4.042629,4.042629,4.042629,60.0,60.0,60.0
4736,Bi1Co1Zr1,301.483,216,4.37363,4.37363,4.37363,60.0,60.0,60.0
4737,C1Ru3Ta1,470.095,221,4.049791,4.049791,4.049791,90.0,90.0,90.0
4738,Al4Au4Er4,236.649,62,4.45221,7.144837,7.76506,90.0,90.0,90.0
4739,Cs2N4Nb2,295.518,227,6.353368,6.353368,6.353368,60.0,60.0,60.0
4740,Hf5P7Pd9,294.302,38,13.70892,13.70892,3.766974,90.0,90.0,152.3561
4741,Ge2Mg4O8,719.258,227,5.906325,5.906325,5.906325,60.0,60.0,60.0
4742,Hf2Ni4Sb2,307.302,194,4.189031,4.189056,8.217846,90.0,90.0,119.9998
4743,Al1Cu1Ti2,377.517,216,4.539624,4.539624,4.539624,60.0,60.0,60.0
4744,Au2Sn1U1,120.513,225,5.100771,5.100771,5.100771,60.0,60.0,60.0
4745,As4Rh4Ti4,396.077,62,3.841438,6.430326,7.485412,90.0,90.0,90.0
4746,Er2Ni12P7,429.439,174,8.952878,8.953066,3.641457,90.0,90.0,120.0
4747,Br4Mo4S4,295.087,216,7.154115,7.154115,7.154115,60.0,60.0,60.0
4748,Hf10Sb6Zn2,284.219,193,8.592517,8.592517,5.778112,90.0,90.0,119.9999
4749,O12Pb4Sr4,340.509,62,5.953416,6.096193,8.463188,90.0,90.0,90.0
4750,Ga2Ge2Li2,342.878,186,4.212558,4.212558,6.816301,90.0,90.0,120.003
4751,Ag2Er2Sn2,233.111,186,4.753679,4.753679,7.36479,90.0,90.0,119.9993
4752,Os2Si2Y1,366.765,139,5.633235,5.633235,5.633235,136.2618,136.2618,63.57587
4753,Cd1P1Pt5,238.918,123,3.94196,3.94196,7.13902,90.0,90.0,90.0
4754,Cu2P2Sr2,370.934,194,4.153902,4.153902,8.449722,90.0,90.0,120.0008
4755,Ga3Mg3Y3,380.202,189,7.293259,7.292919,4.436091,90.0,90.0,120.0015
4756,Br2F2Sr2,235.445,129,4.254189,4.254189,7.499843,90.0,90.0,90.0
4757,B1C2N1,1977.65,25,2.538887,2.5651450000000002,3.644525,90.0,90.0,90.0
4758,Ba1Pd1Si3,334.497,107,6.026721,6.026721,6.026721,136.9169,136.9169,62.56593
4759,Cd2O8Rh4,361.084,227,6.29858,6.29858,6.29858,60.0,60.0,60.0
4760,Ho1P2Ru2,437.921,139,5.544443,5.544443,5.544443,137.226,137.226,62.09049
4761,Ce2Ge6V2,370.145,194,6.197801,6.197801,5.640461,90.0,90.0,120.0027
4762,C1Li4O4,614.066,121,5.078863,5.078863,5.078863,100.7532,100.7532,128.8176
4763,Cd2S8Y4,269.337,227,7.989812,7.989812,7.989812,60.0,60.0,60.0
4764,Co2Fe1In1,373.482,225,4.389666,4.389666,4.389666,60.0,60.0,60.0
4765,Cd2Dy4Se8,182.198,227,8.341148,8.341148,8.341148,60.0,60.0,60.0
4766,Ge4Ho4Mn4,341.437,62,3.634888,7.149016,8.407403,90.0,90.0,90.0
4767,Bi4Cr4O12,432.816,62,5.4733600000000004,5.680057,7.846572,90.0,90.0,90.0