,full_formula,band_gap,spacegroup.number,structure.lattice.a,structure.lattice.b,structure.lattice.c,structure.lattice.alpha,structure.lattice.beta,structure.lattice.gamma
5561,Mn1O1,0.17550000000000002,225,3.194381,3.194381,3.194381,60.0,60.0,60.0
5562,Cd9I18,2.3982,156,4.313918,4.313918,65.26479,90.00167,89.99833,120.0009
5563,Te1Yb1,1.2873999999999999,225,4.551773,4.551773,4.551773,60.0,60.0,60.0
5564,Br1Rb1,3.9573,221,4.186331,4.186331,4.186331,90.0,90.0,90.0
5565,I2In2,1.2631000000000001,63,6.883558,6.883558,4.855002,90.0,90.0,138.7183
5566,Sb2Te3,0.107,166,10.67827,10.67827,10.67827,23.4431,23.4431,23.4431
5567,Ag4O2,0.0868,224,4.87957,4.87957,4.87957,90.0,90.0,90.0
5568,Mn1S1,0.8190000000000001,225,3.7359489999999997,3.7359489999999997,3.7359489999999997,60.0,60.0,60.0
5569,Cr4O6,2.3718,167,5.449971,5.449971,5.449971,55.68325,55.68325,55.68325
5570,Na2Se1,2.0584,225,4.820495,4.820495,4.820495,60.0,60.0,60.0
5571,F8Pb4,4.3591,62,3.949989,6.54608,7.816068,90.0,90.0,90.0
5572,As4Cd2,0.21880000000000002,98,6.20694,6.20694,6.20694,98.51444,98.51444,134.73930000000001
5573,O1Zn1,2.1372,225,2.9762649999999997,2.9762649999999997,2.9762649999999997,60.0,60.0,60.0
5574,Co2F4,4.209,136,4.761175,4.761175,3.207591,90.0,90.0,90.0
5575,Sr1Te1,1.7634,225,4.756248,4.756248,4.756248,60.0,60.0,60.0
5576,K12P44,1.9128,60,10.83468,10.6907,14.00749,90.0,90.0,90.0
5577,Cu4P8,0.8741,14,4.82671,5.814829,7.546209,67.24521,90.0,90.0
5578,S24Zn24,2.6744,156,3.798769,3.798747,74.47343,89.99997,90.0,120.0002
5579,F6In2,4.2011,167,5.834222,5.834222,5.834222,53.9034,53.9034,53.9034
5580,Se2Ti1,0.052700000000000004,164,3.6314640000000002,3.6314640000000002,6.31451,90.00545,89.99455,119.9996
5581,O4Si2,5.0151,136,4.232541,4.232541,2.692748,90.0,90.0,90.0
5582,Cl12P4,4.0435,62,6.520555,8.996355,10.07422,90.0,90.0,90.0
5583,Se2Ti1,0.0688,164,3.625274,3.625573,6.714653,90.01023,90.0,119.9973
5584,O24Sb16,2.4614000000000003,19,7.719115,7.833773,12.1,90.0,90.0,90.0
5585,Fe4S8,2.0165,205,5.521826,5.521826,5.521826,90.0,90.0,90.0
5586,Br8U2,2.2013,12,7.226488,7.226488,7.640108,86.9035,86.9035,76.77826
5587,Ge4O8,0.7382000000000001,205,4.768648,4.768648,4.768648,90.0,90.0,90.0
5588,Cd1Te1,0.7091000000000001,216,4.667969,4.667969,4.667969,60.0,60.0,60.0
5589,I2In2,1.3079,63,6.921584,6.921584,4.89982,90.0,90.0,139.1368
5590,O4Si2,5.0097,136,4.231693,4.231693,2.693447,90.0,90.0,90.0
5591,Nd2O3,3.6338,164,3.882619,3.882619,6.093227,89.99721,90.00279,119.9954
5592,As8Se12,1.3414000000000001,14,10.70945,4.463913,12.17957,90.55892,90.0,90.0
5593,Fe8Si16,0.9744,64,6.267316,6.267316,7.803369,90.0,90.0,104.0076
5594,C2Sr1,1.6711,139,4.488498,4.488498,4.488498,125.234,125.234,81.1508
5595,Li2O1,4.9035,225,3.288979,3.288979,3.288979,60.0,60.0,60.0
5596,In2P2,0.6311,186,4.194199,4.194199,6.883253,90.0,90.0,119.9928
5597,Ga4S4,1.623,194,3.616571,3.616571,15.71533,90.0,90.0,120.0031
5598,Mg1S1,2.7706,225,3.6930680000000002,3.6930680000000002,3.6930680000000002,60.0,60.0,60.0
5599,Ga9Rb3,0.16110000000000002,119,8.830742,8.830742,8.830742,137.5175,137.5175,61.64273
5600,Ru4S8,1.2799,205,5.678403,5.678403,5.678403,90.0,90.0,90.0
5601,Al4O6,5.8562,167,5.182025,5.182025,5.182025,55.26809,55.26809,55.26809
5602,Ho16O24,3.9506,206,9.187657,9.187657,9.187657,109.4712,109.4712,109.4712
5603,Ag4S2,1.1203,4,6.080458,4.416848,6.257955,66.17332,90.0,90.0
5604,F24U6,3.0154,15,8.494833,8.494833,8.503433,63.19005,63.19005,80.17581
5605,Cl16Si4,5.5539000000000005,14,6.918094,10.46018,10.54257,77.05555,90.0,90.0
5606,Cd8P16,1.4518,96,5.353831,5.353831,19.99924,90.0,90.0,90.0
5607,O24Y16,4.0595,206,9.266274,9.266274,9.266274,109.4712,109.4712,109.4712
5608,Ag1Br1,1.5729000000000002,225,4.12057,4.12057,4.12057,60.0,60.0,60.0
5609,Cl1Na1,5.0535,225,4.006793,4.006793,4.006793,60.0,60.0,60.0
5610,O14Ti8,1.7026,2,6.214815,10.83736,7.084141,88.31322,109.2888,105.1099
5611,Hf4O8,4.013,14,5.196415,5.138122,5.317387,80.34788,90.0,90.0
5612,Os4Te8,0.14850000000000002,205,6.476637,6.476637,6.476637,90.0,90.0,90.0
5613,O36Si18,5.6267,71,12.54443,12.54443,12.54443,144.8843,110.2734,80.5322
5614,F12Xe4,2.5223,14,7.560598,6.646339,6.929904,87.07912,90.0,90.0
5615,B12H20,3.9988,36,6.309341,6.309341,9.112784,90.0,90.0,102.3166
5616,Cl4Cr2,2.0607,58,3.549844,6.078543,6.787635,90.0,90.0,90.0
5617,O4Ti2,2.2618,136,4.671479,4.671479,3.024067,90.0,90.0,90.0
5618,Bi8O12,1.6116000000000001,159,7.915615,7.915611,6.197253,90.00135,90.00135,120.0007
5619,Cs1I1,3.6817,221,4.662853,4.662853,4.662853,90.0,90.0,90.0
5620,Br1Na1,4.1148,225,4.249576,4.249576,4.249576,60.0,60.0,60.0
5621,Bi2I6,2.5045,148,8.690267,8.690267,8.690267,53.13453,53.13453,53.13453
5622,Cl1K1,5.0486,225,4.511778,4.511778,4.511778,60.0,60.0,60.0
5623,Be12F24,8.0769,166,9.008142,9.00831,9.007814,94.27215,94.27023,94.27901
5624,O8Ti4,3.1102,12,6.520518,6.520518,6.642183,73.67253,73.67253,34.20301
5625,Na8Si8,1.1561,15,6.868568,6.868568,11.0445,64.95981,64.95981,56.78057
5626,C6Sc8,0.6658000000000001,220,6.35953,6.35953,6.35953,109.4712,109.4712,109.4712
5627,Bi8O12,2.2507,14,8.29881,5.943526,7.555975,67.37988,90.0,90.0
5628,O20P8,4.818,62,4.94533,7.316458,9.643376,90.0,90.0,90.0
5629,Ni1O1,1.7918,225,2.988831,2.988831,2.988831,60.0,60.0,60.0
5630,Cd9I18,2.3917,156,4.313396,4.313396,65.20327,90.00236,89.99764,120.001
5631,Cd6I12,2.4209,164,4.310524,4.310524,44.48785,90.00001,89.99999,120.001
5632,Bi2I6,2.5164,148,8.763714,8.762307,8.764366,52.75986,52.75976,52.7416
5633,Cd12I24,2.3879,156,4.313222,4.313201,87.23253,90.0021,90.0,120.0002
5634,O4Ti2,2.2657,136,4.67177,4.67177,3.023846,90.0,90.0,90.0
5635,Ni1O1,1.7944,225,2.99011,2.99011,2.99011,60.0,60.0,60.0
5636,S1Zn1,2.6758,216,3.798657,3.798657,3.798657,60.0,60.0,60.0
5637,O4Zr2,3.8647,137,3.645463,3.645463,5.297437,90.0,90.0,90.0
5638,Rb4Te2,1.379,194,6.14158,6.14158,8.126528,90.0,90.0,119.9966
5639,O12Xe4,2.105,19,5.488685,6.165411,8.23848,90.0,90.0,90.0
5640,S2Ti1,0.5349,164,3.474514,3.47449,6.232371,90.00043,90.00006,120.0002
5641,Al1As1,1.5011,216,4.054008,4.054008,4.054008,60.0,60.0,60.0
5642,C16K16,3.3975,142,11.99167,11.99167,11.99167,138.9706,138.9706,59.41972
5643,Rb6Sb2,0.0985,194,6.419923,6.420276,11.37354,90.0,90.0,119.9982
5644,B3N3,4.4571,160,2.512512,2.512512,12.1632,89.99926,90.00074,120.0003
5645,O16Si8,4.398,54,4.219894,7.637968,8.482879,90.0,90.0,90.0
5646,Ir4P8,0.5158,14,5.819916,5.771312,5.87719,68.55554,90.00069,89.99893
5647,Ca2Cl4,5.4047,58,4.189862,6.325796,6.541016,90.0,90.0,90.0
5648,Hf2Se6,0.2577,11,3.748205,5.441243,9.812885,96.12224,90.0,90.0
5649,Cd1Te1,0.7091000000000001,216,4.667966,4.667966,4.667966,60.0,60.0,60.0
5650,P8Rh4,0.2427,14,5.845276,5.770591,5.871707,67.26075,90.0,90.0
5651,Hg8I16,1.3503,141,14.62213,14.62213,14.62213,143.7141,143.7141,52.25497
5652,Cd2S2,1.2528000000000001,186,4.188229,4.187845,6.821886,90.0,90.0,120.003
5653,O4Ti2,2.2656,136,4.672683,4.672683,3.02297,90.0,90.0,90.0
5654,Sn1Te1,0.0746,225,4.562521,4.562521,4.562521,60.0,60.0,60.0
5655,La8S16,0.47240000000000004,62,4.178852,8.216046,16.58917,90.0,90.0,90.0
5656,Co2Se2,0.1061,194,3.787352,3.787251,6.063001,90.0,90.0,120.0009
5657,Be2O2,7.4627,186,2.710188,2.71012,4.404332,90.0,90.0,120.0008
5658,Li6P2,0.7021000000000001,194,4.241567,4.241635,7.577581,90.0,90.0,119.9995
5659,Ag1I1,1.4684,225,4.359024,4.359024,4.359024,60.0,60.0,60.0
5660,Ru4Se8,0.864,205,6.0213,6.0213,6.0213,90.0,90.0,90.0
5661,Cs32Si32,1.5714000000000001,218,13.71045,13.71045,13.71045,90.0,90.0,90.0
5662,S24Zn24,2.6791,156,3.798218,3.798225,74.49772,90.00001,90.0,119.9999
5663,Ge2O4,1.1624,136,4.483874,4.483874,2.9124179999999997,90.0,90.0,90.0
5664,H1Li1,2.9611,225,2.824991,2.824991,2.824991,60.0,60.0,60.0
5665,C4O8,6.598,60,5.607746,4.9642479999999995,7.536047,90.0,90.0,90.0
5666,Hf1Se2,0.5388000000000001,164,3.771362,3.771362,6.770585,90.00301,89.99699,120.0008
5667,P32S24,2.817,62,10.40666,11.41289,15.0377,90.0,90.0,90.0
5668,As6Te9,0.3316,166,4.092037,4.092037,30.52496,89.99839,90.00161,120.0019
5669,F6Ti2,2.032,167,5.528559,5.528559,5.528559,60.62496,60.62496,60.62496
5670,H4Mg2,3.7458,136,4.484528,4.484528,2.996331,90.0,90.0,90.0
5671,Cl32In32,2.1626,198,12.48199,12.48199,12.48199,89.99908,89.99908,89.99908
5672,Br8Th2,3.0237,141,7.715161,7.715161,7.715161,106.7743,106.7743,115.0113
5673,O32V16,0.17320000000000002,139,8.556458,8.556458,7.685607,90.0,90.0,90.0
5674,Cu4O2,0.6563,224,4.289544,4.289544,4.289544,90.0,90.0,90.0
5675,Ga2N2,1.9180000000000001,186,3.206096,3.206068,5.216353,90.0,90.0,120.0003
5676,Fe2Se2,0.4833,129,4.221512,4.221512,5.58708,90.0,90.0,90.0
5677,O24Si12,5.3247,92,9.804854,9.804854,9.675747,90.0,90.0,90.0
5678,As8S8,2.0345,15,7.282659,7.282659,9.55619,81.0499,81.0499,84.93625
5679,Cl1K1,4.801,221,3.838342,3.838342,3.838342,90.0,90.0,90.0
5680,Eu1S1,0.7029000000000001,225,4.241332,4.241332,4.241332,60.0,60.0,60.0
5681,La2O3,3.7561999999999998,164,3.9869589999999997,3.986684,6.251914,89.99636,90.0,120.0023
5682,Ba1Se1,1.2122,221,4.014917,4.014917,4.014917,90.0,90.0,90.0
5683,O6Si3,5.7288,154,4.958968,4.959988,5.466995,89.99368,90.01349,119.9855
5684,O4Ti2,2.265,136,4.6724820000000005,4.6724820000000005,3.023349,90.0,90.0,90.0
5685,Lu16O24,4.0078,206,8.940005,8.940005,8.940005,109.4712,109.4712,109.4712
5686,Ca1Te1,1.554,225,4.523969,4.523969,4.523969,60.0,60.0,60.0
5687,S20U8,1.2132,60,7.546098,7.546278,10.07126,90.0,90.0,90.0
5688,S1Zn1,2.6781,216,3.798069,3.798069,3.798069,60.0,60.0,60.0
5689,P16Zn8,1.395,96,5.082579,5.082579,18.52599,90.0,90.0,90.0
5690,F18La6,7.6625,165,7.31124,7.311213,7.484533,90.00046,89.99954,120.0003
5691,K8Te12,0.5325,62,4.645414,10.3936,15.99545,90.0,90.0,90.0
5692,Cs4P6,0.8354,69,9.18464,9.034709,6.98432,68.59967,66.32745,45.07288
5693,Al4O6,5.8499,167,5.181333,5.181333,5.181333,55.2893,55.2893,55.2893
5694,S2V2,0.36050000000000004,194,3.630513,3.630513,6.092696,90.0,90.0,120.0012
5695,Li3N1,0.9848,191,3.650912,3.6507300000000003,3.888829,90.0,90.0,120.0017
5696,Ba2N12,3.8027,11,4.456574,5.509681,9.77352,80.65353,90.0,90.0
5697,I16In8,1.76,52,8.512433,11.22604,11.51313,90.0,90.0,90.0
5698,O32Si16,3.8161,14,13.38255,8.111798,8.325971,51.84463,90.0,90.0
5699,O16Ti8,2.5721,61,5.273363,5.545192,9.340862,90.0,90.0,90.0
5700,Co6O8,0.3105,227,5.962168,5.962168,5.962168,60.0,60.0,60.0
5701,N6Rb2,4.1709,140,5.945718,5.945718,5.945718,114.6137,114.6137,99.61368
5702,Cl8U2,2.2636,141,7.112314,7.112314,7.112314,107.2918,107.2918,113.9239
5703,Ca5P8,1.1395,12,6.895284,6.895284,7.509557,80.97868,80.97868,119.6651
5704,K6S6,1.4624000000000001,189,8.578335,8.578335,5.930563,90.0,90.0,120.0007
5705,O8Sb4,2.0922,15,6.586263,6.586263,5.471335,76.76737,76.76737,44.00758
5706,N8Si6,4.2459,176,7.660249,7.660263,2.924803,90.0,90.0,120.0001
5707,I2In2,1.2836,63,6.877521,6.877521,4.926567,90.0,90.0,139.0599
5708,O4Ti2,2.2636,136,4.672154,4.672154,3.023907,90.0,90.0,90.0
5709,F18Mn6,0.724,15,5.223216,5.223216,13.75141,87.80169,87.80169,59.19637
5710,Mg1O1,4.4694,225,3.007217,3.007217,3.007217,60.0,60.0,60.0
5711,Cl1K1,4.7995,221,3.8387979999999997,3.8387979999999997,3.8387979999999997,90.0,90.0,90.0
5712,Cl1Na1,5.0416,225,4.011026,4.011026,4.011026,60.0,60.0,60.0
5713,Cd7I14,2.3805,156,4.311923,4.31189,50.78712,89.99973,90.0,120.0002
5714,O16Pb12,1.1355,55,6.78153,8.893075,9.155872,90.0,90.0,90.0
5715,As8S10,1.9759000000000002,11,8.484336,7.852501,8.384656,77.85965,90.0,90.0
5716,O24Tb16,3.903,206,9.302491,9.302491,9.302491,109.4712,109.4712,109.4712
5717,Cd2Se2,0.6888000000000001,186,4.372629,4.372629,7.136088,90.0,90.0,119.9938
5718,F6Mo1,4.1005,229,5.689745,5.689745,5.689745,109.4712,109.4712,109.4712
5719,Ge3I6,1.9843000000000002,164,4.28906,4.288991,21.72759,90.00018,90.0,120.0005
5720,Al4O6,5.8568,167,5.181382,5.181382,5.181382,55.27461,55.27461,55.27461
5721,B4H12,5.1546,2,9.084779,6.0666,4.501159,80.49918,55.93456,85.33222
5722,Ir4P8,0.5067,14,5.819466,5.770579,5.878665,68.55441,90.0,90.0
5723,Ce16O24,2.8750999999999998,206,9.85215,9.85215,9.85215,109.4712,109.4712,109.4712
5724,Br2In2,1.1108,63,6.606104,6.606104,4.662869,90.0,90.0,139.4087
5725,O4Ti2,2.5872,141,5.599349,5.599349,5.599349,139.7225,139.7225,58.27494
5726,O3W1,0.73,221,3.846819,3.846819,3.846819,90.0,90.0,90.0
5727,Be2O2,7.431,186,2.7132259999999997,2.7132259999999997,4.399904,90.0,90.0,120.0004
5728,Ag8F20,0.8763000000000001,2,5.150177,11.29965,7.526248,89.87752,107.6211,90.61329
5729,O8Zr4,3.4688,14,5.294458,5.207722,5.385762,80.47412,90.0,90.0
5730,O8V4,0.684,14,4.513923,5.432717,5.434393,67.85761,90.0,90.0
5731,Br1Na1,4.1292,225,4.242431,4.242431,4.242431,60.0,60.0,60.0
5732,Cd1Te1,0.7091000000000001,216,4.66797,4.66797,4.66797,60.0,60.0,60.0
5733,Bi4Te3,0.0334,166,14.44953,14.44947,14.44947,17.91518,17.91507,17.91507
5734,In8O12,0.9617,60,5.557606,5.656533,8.038135,90.0,90.0,90.0
5735,I8Sr4,3.8006,62,5.041501,8.510396,12.54513,90.0,90.0,90.0
5736,Pb1Te1,0.7988000000000001,225,4.636535,4.636535,4.636535,60.0,60.0,60.0
5737,Fe12S12,1.0017,40,5.962334,5.962334,10.7522,90.0,90.0,119.9594
5738,O8Si4,5.373,194,5.278403,5.278045,8.602435,90.0,90.0,120.0022
5739,Eu1O1,0.26530000000000004,225,3.658351,3.658351,3.658351,60.0,60.0,60.0
5740,Ag4I4,2.0867,186,4.684909,4.684909,14.83711,90.0,90.0,119.9722
5741,O12W4,1.6202,14,5.314307,5.381451,7.810131,88.98651,90.0,90.0
5742,O16Sn8,0.2466,61,5.234608,5.322005,10.30686,90.0,90.0,89.99869
5743,Cl8Si4,2.0118,19,4.032621,7.247541,13.82828,90.0,90.0,90.0
5744,Cl1Cs1,4.9953,221,4.206358,4.206358,4.206358,90.0,90.0,90.0
5745,Se4Sn4,0.6483,62,4.276211,4.541399,11.98739,90.0,90.0,90.0
5746,C2S4,3.4127,64,4.772768,4.772768,9.657459,90.0,90.0,102.864
5747,Ga1P1,1.6417000000000002,216,3.882179,3.882179,3.882179,60.0,60.0,60.0
5748,S20Tl8,1.6556000000000002,19,6.847943,6.968347,17.06594,90.0,90.0,90.0
5749,La2O3,3.7586,164,3.988523,3.988244,6.244441,89.99645,90.0,120.0023
5750,O1Zn1,2.1305,225,2.977236,2.977236,2.977236,60.0,60.0,60.0
5751,Mg1O1,4.4693,225,3.007234,3.007234,3.007234,60.0,60.0,60.0
5752,Cd2Se2,0.6897,186,4.373625,4.373233,7.134719,90.0,90.0,120.003
5753,Al1Sb1,1.2271,216,4.407931,4.407931,4.407931,60.0,60.0,60.0
5754,Cl30W6,0.761,12,13.28268,13.28268,6.609402,86.01931,86.01931,88.75583
5755,Al1As1,1.501,216,4.054017,4.054017,4.054017,60.0,60.0,60.0
5756,Cl6Pr2,3.0254,176,7.525772,7.509385,4.322023,90.0,90.0,119.9825
5757,Rb2Te1,1.8923,225,6.079299,6.079299,6.079299,60.0,60.0,60.0
5758,Te2Ti2,0.4898,63,4.224943,4.224943,6.982895,90.0,90.0,119.4198
5759,Ca4H8,3.029,62,3.559,5.881,6.751,90.0,90.0,90.0
5760,Mg1O1,4.4685,225,3.007315,3.007315,3.007315,60.0,60.0,60.0
5761,P16Zn8,0.7774000000000001,14,7.29794,7.57726,8.853193,77.61885,90.0,90.0
5762,O6Si3,5.6836,154,5.004214,5.004723,5.515395,90.02873,90.0195,119.9999
5763,Ge3O6,3.1343,152,5.132236,5.132294,5.77133,89.99415,90.00582,120.007
5764,O24Si12,2.7528,166,10.86212,10.86194,10.861930000000001,115.1939,115.197,115.1974
5765,Cu1I1,1.6515,216,4.304802,4.304802,4.304802,60.0,60.0,60.0
5766,Cd13I26,2.3319,156,4.314238,4.314215,94.11522,89.99774,90.0,120.0002
5767,O12Si6,5.6078,179,7.359485,7.359485,7.057672,90.0,90.0,120.0
5768,S2V2,0.36510000000000004,194,3.6372869999999997,3.6372869999999997,6.089166,90.0,90.0,119.9809
5769,O4Zr2,3.8646000000000003,137,3.645886,3.645886,5.298394,90.0,90.0,90.0
5770,La4P20,0.09770000000000001,11,9.727117,5.5639710000000004,10.16478,76.90847,90.0,90.0
5771,Ba2S4,1.5779,15,5.265073,5.265073,9.149684,65.14994,65.14994,54.58206
5772,Mn1S1,0.8231,225,3.736761,3.736761,3.736761,60.0,60.0,60.0
5773,S4Sn4,0.9221,62,4.094422,4.36717,11.74808,90.0,90.0,90.0
5774,Cd8Sb8,0.0872,61,6.563451,8.413292,8.712337,90.0,90.0,90.0
5775,S20Th8,2.0663,60,7.782529,7.842944,10.4946,90.0,90.0,90.0
5776,Cd8I16,2.3763,156,4.31302,4.312985,57.94933,90.00248,90.0,120.0003
5777,O8Si4,5.5339,92,5.052091,5.052091,7.035848,90.0,90.0,90.0
5778,As4Br12,3.0694,19,4.531962,11.12573,13.1489,90.0,90.0,90.0
5779,Pb1S1,0.4655,225,4.24628,4.24628,4.24628,60.0,60.0,60.0
5780,Mg3Sb2,0.2313,164,4.595852,4.5952079999999995,7.282928,90.00418,90.0,120.0046
5781,O18W6,1.1025,193,7.5280190000000005,7.5280190000000005,7.626897,90.0,90.0,120.0
5782,Mn6O8,0.6479,141,6.358364,6.358364,6.358364,124.726,124.726,81.99236
5783,Cl1Na1,5.0394,225,4.011829,4.011829,4.011829,60.0,60.0,60.0
5784,C22F14,2.2212,12,6.089984,6.089984,13.78899,86.2174,86.2174,80.65888
5785,Cu3N1,0.5203,221,3.821817,3.821817,3.821817,90.0,90.0,90.0
5786,S24Zn24,2.6795999999999998,156,3.798407,3.79838,74.47645,90.00003,90.0,120.0002
5787,Br32Si8,4.1044,205,12.07649,12.07649,12.07649,90.0,90.0,90.0
5788,Ba1Te1,1.5921,225,5.012178,5.012178,5.012178,60.0,60.0,60.0
5789,O64Si32,5.8713,127,15.79837,15.79837,9.9571,90.0,90.0,90.0
5790,N16Si12,4.6571,159,7.807455,7.807455,5.659606,90.00001,90.00001,120.0
5791,Cd4F8,2.896,62,3.657648,5.8928139999999996,7.109293,90.0,90.0,90.0
5792,N3Rb1,3.7404,123,3.908998,3.908998,5.5844249999999995,90.0,90.0,90.0
5793,O3Y2,4.0902,164,3.6912570000000002,3.6912570000000002,5.907255,89.99868,90.00132,119.9984
5794,Cd1Te1,0.7094,216,4.667849,4.667849,4.667849,60.0,60.0,60.0
5795,O4Ti2,2.5635,141,5.583895,5.583895,5.583895,139.5398,139.5398,58.5527
5796,I8Pt4,1.5137,14,9.135517,6.888247,7.060643,77.7958,90.0,90.0
5797,Hg2I2,1.5926,139,6.926315,6.926315,6.926315,136.5386,136.5386,63.14879
5798,Be6H12,5.4212,72,6.220043,6.220043,6.220043,141.2175,104.5453,88.24216
5799,Gd2O3,3.805,164,3.751902,3.751902,5.977207,90.06969,89.93031,120.1322
5800,Cd2Se2,0.6903,186,4.37389,4.37389,7.132517,90.0,90.0,119.9943
5801,Nb8O16,0.4731,80,7.54994,7.54994,7.54994,99.19202,99.19202,132.8837
5802,O4Zr2,3.8713,137,3.644615,3.644615,5.304785,90.0,90.0,90.0
5803,I32Sn8,1.7705000000000002,205,13.15377,13.15377,13.15377,89.99747,89.99747,89.99747
5804,Cl8I8,1.0559,14,4.963628,12.9771,12.99698,70.69588,90.0,90.0
5805,S4Sn4,0.9538000000000001,62,4.077233,4.447275,11.63891,90.0,90.0,90.0
5806,F3Sc1,6.5706,221,4.123693,4.123693,4.123693,90.0,90.0,90.0
5807,Ni1O1,1.7915,225,2.9887300000000003,2.9887300000000003,2.9887300000000003,60.0,60.0,60.0
5808,O8Si4,5.5555,92,5.007512,5.007512,6.949021,90.0,90.0,90.0
5809,Pb4Te4,0.7269,62,4.713522,4.578231,13.13438,90.0,90.0,90.0
5810,N3Na1,3.9918,166,5.524591,5.524591,5.524591,38.64469,38.64469,38.64469
5811,Li3N1,0.9839,191,3.652827,3.6526449999999997,3.88843,90.0,90.0,120.0017
5812,Cl6U2,2.7058,11,7.579226,7.583153,4.377112,90.0,90.0,120.2572
5813,O2Th1,4.5404,225,4.119786,4.119786,4.119786,60.0,60.0,60.0
5814,Bi2Se3,0.4893,166,10.33679,10.33679,10.33679,23.370260000000002,23.370260000000002,23.370260000000002
5815,Cl6Ti2,2.5053,148,7.336659,7.334244,7.333278,51.9284,51.95963,51.92368
5816,P8S8,2.5122,15,7.296046,7.296046,9.635766,80.51809,80.51809,83.9323
5817,Cd2Se2,0.6881,186,4.372241,4.371852,7.1394,90.0,90.0,120.0029
5818,Pb1Se1,0.39840000000000003,225,4.386919,4.386919,4.386919,60.0,60.0,60.0
5819,Dy16O24,3.9262,206,9.245308,9.245308,9.245308,109.4712,109.4712,109.4712
5820,O6Si3,5.536,180,5.103463,5.103463,5.593267,90.0,90.0,120.0
5821,Cl6Tb2,3.8187,63,6.95336,6.95336,8.578322,90.0,90.0,148.0038
5822,In4S4,1.3765,58,3.993837,4.73951,10.70881,90.0,90.0,90.0
5823,Se4Sn4,0.6633,62,4.251319,4.598302,11.89141,90.0,90.0,90.0
5824,O9Y6,3.9655,12,7.268193,7.268193,8.687887,79.8872,79.8872,28.00065
5825,N4Th3,1.4449,166,9.79311,9.79311,9.79311,23.55548,23.55548,23.55548
5826,O4Si2,5.7797,122,5.102041,5.102041,5.102041,121.6309,121.6309,87.19766
5827,Co6O8,0.3274,227,5.975722,5.975722,5.975722,60.0,60.0,60.0
5828,O24Sc16,4.2781,206,8.70173,8.70173,8.70173,109.4712,109.4712,109.4712
5829,Ca2Si1,0.5518000000000001,225,5.065174,5.065174,5.065174,60.0,60.0,60.0
5830,O24Yb16,0.40140000000000003,206,8.995335,8.995335,8.995335,109.4712,109.4712,109.4712
5831,O4Ti2,2.5385,141,5.583947,5.583947,5.583947,139.4807,139.4807,58.64258
5832,F4Ni2,4.0207,58,3.11054,4.649666,4.762626,90.0,90.0,90.0
5833,Co6O8,0.3272,227,5.975578,5.975578,5.975578,60.0,60.0,60.0
5834,Pb2S2,0.5436,186,4.150371,4.150371,7.595466,90.0,90.0,119.9968
5835,F8Xe2,2.7984,14,6.727958,5.688258,6.140047,78.48711,90.0,90.0
5836,N2U1,0.7669,225,3.76744,3.76744,3.76744,60.0,60.0,60.0