,full_formula,band_gap,spacegroup.number,structure.lattice.a,structure.lattice.b,structure.lattice.c,structure.lattice.alpha,structure.lattice.beta,structure.lattice.gamma
7478,K2S4Sb2,1.5881,15,6.491627,6.491627,6.981435,68.70486,68.70486,93.04788
7479,Cl24Rb6Re6,0.9807,63,9.35088,9.35088,12.49706,90.0,90.0,109.112
7480,Ag8N8O24,2.605,19,7.35744,7.466426,10.13858,90.0,90.0,90.00049
7481,As1Co1Hf1,1.1772,216,4.077096,4.077096,4.077096,60.0,60.0,60.0
7482,Eu1O3Ti1,0.7836000000000001,221,3.970479,3.970414,3.970414,90.0,90.0,90.0
7483,Al4Cl16Pd2,2.1621,14,7.686011,6.84257,14.13043,81.25886,90.0,90.0
7484,N8O24Pb4,3.6244,205,7.987484,7.987484,7.987484,90.0,90.0,90.0
7485,O8P2Y2,5.8065999999999995,141,5.792841,5.792841,5.792841,105.9257,105.9257,116.822
7486,C12Cs6H6,4.5904,161,9.109121,9.109121,9.109121,109.145,109.145,109.145
7487,K1Se2Sm1,0.3214,166,7.951452,7.951452,7.951452,31.48607,31.48607,31.48607
7488,K4S14Sb8,1.5493000000000001,15,6.636073,6.636073,17.79981,86.78566000000001,86.78566000000001,75.06003
7489,Cd4O8Sn2,0.3534,55,3.277853,5.67364,10.12519,90.0,90.0,90.0
7490,Na4Se6Zr2,1.2978,12,6.996699,6.996699,7.313126,80.72149,80.72149,120.1079
7491,Bi2O11Ti4,2.3573,12,7.736893,7.736893,10.33585,49.02898,49.02898,28.81085
7492,Al2H8Na2,4.6745,88,6.57311,6.57311,6.57311,135.4954,135.4954,64.76137
7493,S20Sb8Sn8,0.777,62,3.982889,11.53561,20.68355,90.0,90.0,90.0
7494,Cd1F3Sb1,0.4315,221,4.558162,4.558162,4.558162,90.0,90.0,90.0
7495,O3Pb1Ti1,2.1599,99,3.992595,3.992595,4.083065,90.0,90.0,90.0
7496,Br6Mn2Rb2,3.0859,194,7.638116,7.637957,6.619857,90.0,90.0,120.0007
7497,Bi20Br4O28,2.8156,64,8.705788,8.705788,23.912770000000002,90.0,90.0,143.378
7498,Al4O8Zn2,4.4911,227,5.731176,5.731176,5.731176,60.0,60.0,60.0
7499,As4Hg12O16,0.441,14,5.269082,9.270403,12.40306,84.41222,90.0,90.0
7500,Cr4S8Zn2,1.1688,227,7.135419,7.135419,7.135419,60.0,60.0,60.0
7501,Ag2Ba1S2,1.3456000000000001,164,4.455413,4.455359,7.295881,90.00085,90.00001,120.0006
7502,O16Pb8Pt4,0.6811,55,6.409479,8.088961,9.232537,90.0,90.0,90.0
7503,Na4O8S2,4.9775,63,5.361769,5.361769,7.007843,90.0,90.0,115.8771
7504,F18Mg6Rb6,6.6728000000000005,194,5.936311,5.936311,14.44134,90.0,90.0,120.0057
7505,C2Mg2O6,4.9493,167,5.748102,5.748102,5.748102,48.11421,48.11421,48.11421
7506,Ba32Ge8P32,1.0113,218,13.21918,13.21918,13.21918,90.0,90.0,90.0
7507,B2Gd2O6,2.4130000000000003,194,5.278936,5.279007,6.525117,90.0,90.0,119.9996
7508,Cl2O2Y2,4.2949,166,10.06199,10.06199,10.06199,21.91451,21.91451,21.91451
7509,Fe8Rb36Se28,1.5432000000000001,198,13.79997,13.79997,13.79997,90.0,90.0,90.0
7510,Li2Nb2O4,1.6666,194,2.930376,2.930376,10.56883,90.0,90.0,120.0017
7511,Cs4I4O16,2.5063,62,6.026145,6.147687,14.85143,90.0,90.0,90.0
7512,As4Cd2Si2,0.4587,122,6.9670819999999996,6.9670819999999996,6.9670819999999996,129.1119,129.1119,74.83058
7513,Co2Na12S8,2.1866,186,8.9468,8.9468,6.907043,90.0,90.0,120.0017
7514,Al6F28Na10,6.5595,128,7.110395,7.110395,10.57771,90.0,90.0,90.0
7515,Cu6Er6Sb8,0.3048,220,8.271483,8.271483,8.271483,109.4712,109.4712,109.4712
7516,N4O4Ta4,2.0945,14,5.097315,5.037032,5.24229,80.28901,90.0,90.0
7517,Ba1O3Zr1,3.0365,221,4.257044,4.257044,4.257044,90.0,90.0,90.0
7518,F20Tl4Zr4,4.7914,14,8.095426,7.632568,8.087307,63.33723,90.0,90.0
7519,Cu2Ga2Te4,0.4449,122,7.436217,7.436217,7.436217,131.4621,131.4621,71.07986
7520,Ge4N8Si2,1.6369,227,5.754766,5.754766,5.754766,60.0,60.0,60.0
7521,O20Ti4Y8,3.7895000000000003,62,3.727404,10.480550000000001,11.41028,90.0,90.0,90.0
7522,F7K1Sc2,6.2062,65,6.379452,6.379452,4.125482,90.0,90.0,116.7577
7523,Ba1O3Ti1,2.1335,221,4.059647,4.059647,4.059647,90.0,90.0,90.0
7524,Ca8Ga16O32,3.0819,33,7.811534,9.217111,10.42834,90.00015,90.00059,90.00012
7525,C6Ca6O18,4.9988,167,5.040639,5.040639,17.31268,90.0,90.0,120.0
7526,Al8H24O24,4.6842,14,5.121636,8.935064,9.993199,74.1887,90.0,90.0
7527,Ba1O3Ti1,2.1326,221,4.060164,4.060164,4.060164,90.0,90.0,90.0
7528,Ga2S4Zn1,2.4419,82,6.449022,6.449022,6.449022,131.1686,131.1686,71.54538
7529,Cl16F4Ta4,3.2392,82,10.26665,10.26665,10.26665,100.08,100.08,130.5381
7530,K2S4Sb2,1.5988,15,6.488981,6.488981,6.966086,68.86163,68.86163,93.38608
7531,Bi12O20Si1,2.4132,197,8.889981,8.889981,8.889981,109.4712,109.4712,109.4712
7532,Ba1O4S1,4.5103,216,5.222547,5.222547,5.222547,60.0,60.0,60.0
7533,Bi8O24Si6,3.9208,220,9.047689,9.047689,9.047689,109.4712,109.4712,109.4712
7534,Ni3O18U6,2.6626000000000003,150,9.189798,9.189798,5.097013,89.99201,90.00799,120.0079
7535,B2O6Tl6,1.3701,176,9.452412,9.453468,3.884918,90.0,90.0,119.9883
7536,Cd2O8W2,3.0826000000000002,13,5.997299,5.090319,5.155302,88.44907,90.0,90.0
7537,Ge2Se8Sr4,1.7027,40,6.543544,6.543544,10.44551,90.0,90.0,110.1315
7538,Cl6Rb2Te1,2.6925,225,7.489316,7.489316,7.489316,60.0,60.0,60.0
7539,As16Cd8Ge4,0.0747,62,7.36,7.561947,12.91102,90.0,90.0,90.0
7540,Ca4O12Si4,3.5129,139,6.250549,6.250549,6.250549,109.3976,109.3976,109.6186
7541,Au2Rb2Se2,1.8372000000000002,63,5.437958,5.437958,7.001618,90.0,90.0,101.5742
7542,K8Se16Sn6,1.3419,68,14.83443,14.83443,8.413634,90.0,90.0,146.8985
7543,Cd4Nb4O14,2.0808,227,7.431789,7.431789,7.431789,60.0,60.0,60.0
7544,Br12Fe4In4,1.9068,62,4.026054,9.444771,15.27229,90.0,90.0,90.0
7545,O7P2Zn2,4.3859,12,5.269278,5.269278,4.560756,79.91033,79.91033,102.3995
7546,Hg12O16P4,0.4171,14,9.432333,8.894532,11.61899,52.15743,90.0,90.0
7547,Rb8S32Sn8,0.9572,2,10.59107,11.98063,15.41322,99.7137,88.37196,90.75349
7548,Na6O9S2,3.0301,225,6.890563,6.890563,6.890563,60.0,60.0,60.0
7549,Ca8O16Ru4,0.9847,61,5.489931,5.809507,11.63302,90.0,90.0,90.0
7550,Al8Ca2O14,3.9997,15,7.902485,7.902485,5.494265,76.2662,76.2662,69.11856
7551,Ge4Mn8O16,0.29,74,8.177132,8.177132,8.177132,136.0542,114.2242,82.51277
7552,B12O24Tb4,5.2178,14,6.163765,7.822549,8.347534,90.00032,89.99721,89.96414
7553,P4Sn2Zn2,0.6787000000000001,122,7.025183,7.025183,7.025183,132.0249,132.0249,70.18974
7554,Cl2N2Zr2,1.7616,166,10.01405,10.01405,10.01405,20.99369,20.99369,20.99369
7555,Bi8Cu4O16,0.8364,130,8.535353,8.535353,6.030113,90.0,90.0,90.0
7556,Ge2K6Se6,1.7804,12,7.982917,7.982917,8.591718,74.98122,74.98122,109.7444
7557,Al8Be4O16,6.1288,62,4.459534,5.526636,9.493093,90.0,90.0,90.0
7558,Al4S8Zn2,2.4745,227,7.104457,7.104457,7.104457,60.0,60.0,60.0
7559,Mn3O18Sb6,0.5506,150,8.944363,8.944363,4.805633,90.00016,89.99984,120.0007
7560,Cd1W2Zr1,0.1824,216,4.701734,4.701734,4.701734,60.0,60.0,60.0
7561,Mn12O32Ta8,2.5972,88,9.492943,9.492943,9.492943,105.9628,105.9628,116.7421
7562,Br16In4K4,2.8762,52,8.023901,10.78735,10.77552,90.0,90.0,90.0
7563,Bi1Ga1O3,1.2957,221,3.8861879999999998,3.8861879999999998,3.8861879999999998,90.0,90.0,90.0
7564,O14Ta4Th2,3.013,12,8.072963,8.072963,8.630649,84.3721,84.3721,28.43234
7565,C1H1N1,6.6011,44,3.8545439999999997,3.8545439999999997,3.8545439999999997,115.0364,111.8351,101.8218
7566,Cl4Na4O12,5.6376,198,6.679984,6.679984,6.679984,90.0,90.0,90.0
7567,Cr5S8Tl1,0.7003,12,9.29811,9.29811,8.815484,75.01396,75.01396,21.93395
7568,Cd2Ir1Ta1,0.0378,216,4.653776,4.653776,4.653776,60.0,60.0,60.0
7569,Ca8Fe8O20,0.6125,62,5.5401810000000005,5.65747,14.85925,90.0,90.0,90.0
7570,I2Li2O6,3.6449,173,5.528872,5.5284569999999995,5.306406,90.0,90.0,120.0012
7571,Cd2Te4Zn2,1.035,122,7.76656,7.76656,7.76656,131.4418,131.4418,71.11215
7572,H8Li4N4,3.2417,82,6.293705,6.293705,6.293705,133.2063,133.2063,68.3304
7573,Cl8O8Pb12,2.4552,62,5.952517,9.882099,12.13307,90.0,90.0,90.0
7574,F3K1Tc1,0.1105,221,4.631868,4.631868,4.631868,90.0,90.0,90.0
7575,I10Pt1Y6,0.6078,2,11.59789,9.721024,7.735323,75.56106,71.94847,53.66718
7576,Al4O12Y4,5.5457,62,5.225352,5.384072,7.448429,90.0,90.0,90.0
7577,As4Fe4Te4,0.9854,14,6.231684,6.247008,6.275937,65.25456,90.0,90.0
7578,Cl12Cr4Rb4,2.0581,5,7.190223,7.190223,12.99259,85.12487,85.12487,59.57971
7579,Li2Nb2O4,1.6543,194,2.93604,2.93604,10.55094,90.0,90.0,120.0016
7580,Ba1F3Mo1,0.25220000000000004,221,5.075746,5.075746,5.075746,90.0,90.0,90.0
7581,Al20O48Yb12,0.6225,230,10.38928,10.38928,10.38928,109.4712,109.4712,109.4712
7582,N9O27Rb9,3.2612,144,10.695920000000001,10.695920000000001,7.611065,90.0,90.0,120.0
7583,S6Tl4Zr2,0.8898,11,3.826537,7.988137,10.55952,82.78257,90.0,90.0
7584,Cl18Cs6Sc4,4.2599,167,9.793289,9.793179,9.793137,83.54347,83.54366,83.5432
7585,C2Na4O6,3.8494,12,5.208164,5.208164,6.146534,79.876,79.876,61.41765
7586,Fe2O6Ti2,1.9756,148,5.583028,5.583028,5.583028,55.66703,55.66703,55.66703
7587,Fe4O16U4,1.4531,60,4.869121,5.219721,11.51209,90.0,90.0,90.0
7588,O4S4Zr4,2.4226,198,5.769821,5.769821,5.769821,90.0,90.0,90.0
7589,Na2Nb2O4,1.4329,194,2.988622,2.988622,11.6647,90.0,90.0,120.0
7590,Fe1La2Sn1,0.19390000000000002,216,5.082533,5.082533,5.082533,60.0,60.0,60.0
7591,Mn8O20Y4,1.0711,55,5.793615,7.371372,8.580958,90.0,90.0,90.0
7592,Hg1Mo2Ti1,0.08460000000000001,216,4.586066,4.586066,4.586066,60.0,60.0,60.0
7593,La8Ni4O16,1.0846,138,5.616457,5.616457,12.62846,90.0,90.0,90.0
7594,Ag1Cr1Se2,0.3448,160,7.462481,7.462481,7.462481,29.49125,29.49125,29.49125
7595,In1Rh1Sc2,0.36050000000000004,216,4.729413,4.729413,4.729413,60.0,60.0,60.0
7596,Cl16Na4Sc4,4.1144,60,6.357497,6.489616,15.79519,90.0,90.0,90.0
7597,Ga8N16Sr12,1.6335000000000002,52,5.993495,9.596099,10.32192,90.0,90.0,90.0
7598,Ge2Na4O6,2.9401,36,6.318575,6.318575,4.98662,90.0,90.0,119.9583
7599,Cr2O12Ta4,1.1918,136,4.809502,4.809502,9.481981,90.0,90.0,90.0
7600,C18Cr12N36,1.7153,167,5.620026,5.619993,28.24076,89.99723,90.00288,120.0011
7601,Bi2Fe2O6,1.6613,161,5.743413,5.743413,5.743413,58.84967,58.84967,58.84967
7602,F3Ga1Mn1,3.2197,221,4.243452,4.243452,4.243452,90.0,90.0,90.0
7603,In1S2Tl1,0.6872,166,7.844053,7.844053,7.844053,28.83279,28.83279,28.83279
7604,Li1S2Ti1,1.4079000000000002,164,3.618461,3.618293,6.154126,90.00121,90.0,120.0015
7605,Cs2F6Ni2,4.7675,194,6.345427,6.3452020000000005,5.287414,90.0,90.0,120.0012
7606,O24Si8Sr8,4.6003,14,6.154934,7.552287,12.24571,83.32302,90.0,90.0
7607,Eu4O14Sn4,0.1091,227,7.607995,7.607995,7.607995,60.0,60.0,60.0
7608,Mg4N8Si4,3.9646,33,5.027374,5.309763,6.506976,90.0,90.0,90.0
7609,F3K1Tc1,0.23290000000000002,221,4.591536,4.591536,4.591536,90.0,90.0,90.0
7610,O12P8S8,3.9191000000000003,120,9.780232999999999,9.780232999999999,9.780232999999999,121.6888,121.6888,87.09902
7611,Cl4K4O16,5.4981,62,5.790785,7.383867,9.17295,90.0,90.0,90.0
7612,As8S24Tl24,1.5443,61,5.798753,12.80738,22.32843,90.0,90.0,90.0
7613,Cl2F2Pb2,3.47,129,4.152183,4.152183,7.348474,90.0,90.0,90.0
7614,Cl16Cs8Hg4,3.0255,19,7.823976,10.01824,14.13499,90.0,89.99587,90.0
7615,Ge32Li28Rb4,0.16640000000000002,186,9.698622,9.698622,16.47217,90.0,90.0,120.0059
7616,Ba4N8O24,3.5991,205,8.274938,8.274938,8.274938,90.0,90.0,90.0
7617,Eu2O8Ta2,0.2803,13,5.609664,5.274252,5.431115,83.1878,89.99846,90.00472
7618,O24Si8Zn8,4.1238,14,10.63064,5.42508,9.28027,89.89036,90.0,90.0
7619,Li6O6Te1,2.9539,148,5.187227,5.187227,5.187227,101.0959,101.0959,101.0959
7620,N2Na2O6,2.9604,167,6.405026,6.405026,6.405026,47.48333,47.48333,47.48333
7621,F8N8S8,3.4455999999999998,114,9.568833,9.568833,4.5715900000000005,90.0,90.0,90.0
7622,La2Ru1Se1,0.1511,225,5.169188,5.169188,5.169188,60.0,60.0,60.0
7623,I4S4Sb4,1.5262,19,4.132289,9.683851,10.86955,90.0,90.0,90.0
7624,Al4Ca10Sb12,0.1579,55,4.500268,12.13335,14.13883,90.0,90.0,90.0
7625,Co6O16U4,2.6005000000000003,58,5.189085,6.200848,10.44382,90.0,90.0,90.0
7626,F4H12O4,6.7295,62,4.176229,6.459561,6.270592,90.0,90.0,90.0
7627,Ge1Ir1Ta1,1.1708,216,4.249528,4.249528,4.249528,60.0,60.0,60.0
7628,F2Nd2O2,3.8471,166,7.060051,7.060051,7.060051,33.07466,33.07466,33.07466
7629,Ba8Mn4O12,1.6459000000000001,15,6.59582,6.59582,12.81734,88.45246,88.45246,125.1385
7630,Cr4Mn2O8,2.3446,227,6.087201,6.087201,6.087201,60.0,60.0,60.0
7631,Co4Mo8S16,0.3562,9,6.857909,6.857909,13.56955,65.17424,65.17424,58.28484
7632,O16S4Sn4,4.0128,2,8.93514,5.468939,7.222623,92.04015,90.01359,89.45986
7633,Br28Rb4W12,2.9082,15,13.24774,13.24774,10.17854,69.36931,69.36931,73.63055
7634,Cs8F20Mg6,6.2651,64,8.021494,8.021494,13.90279,90.0,90.0,134.3198
7635,C2Cs8O8,0.5134000000000001,1,10.71888,10.71995,11.39726,23.225,85.94515,84.36652
7636,Fe3O12P3,2.5202999999999998,152,5.167129,5.167234,11.49806,90.00407,89.99897,120.006
7637,Al4Cl16Ni2,2.8777,15,8.126934,8.127536,11.6013,87.65413,87.653,59.78573
7638,Hf2P4S12,0.8296,43,13.51091,10.20844,9.535505,86.29118,48.93699,44.77183
7639,Cu5Na8O10,0.0253,8,8.181017,8.181017,5.736648,79.06069,79.06069,118.6637
7640,Ni2O7P2,2.672,12,5.616529,5.616529,4.65637,81.38506,81.38506,103.0784
7641,Ba2F6Ni1,3.8746,139,8.748344,8.748344,8.748344,152.6415,152.6415,39.0772
7642,Cr11K3S18,0.7003,12,10.97003,10.97003,16.71737,80.19797,80.19797,18.6817
7643,Cl2N2Zr2,1.3464,164,3.364954,3.365281,12.2892,90.06222,90.0,119.9968
7644,C1F2Ho2,1.1424,164,6.40241,3.646655,6.3156,29.99569,89.99741,89.9979
7645,Ag1Nb1O3,1.7711999999999999,221,3.999972,3.999972,3.999972,90.0,90.0,90.0
7646,Ag4O22Ta8,3.1596,167,13.00229,13.00308,13.00262,28.01434,28.00909,28.01437
7647,Co1F6Pt1,2.5724,148,5.482938,5.482938,5.482938,56.73628,56.73628,56.73628
7648,Bi8Ge4O20,2.2957,62,3.974764,11.23293,11.11132,90.0,90.0,90.0
7649,In1Pd1V1,0.1221,216,4.332658,4.332658,4.332658,60.0,60.0,60.0
7650,Ag10S8Sb2,1.051,36,7.490588,7.490588,8.771864,90.0,90.0,116.0742
7651,Ca1P2Zn2,0.9114000000000001,164,4.016504,4.016504,6.794528,90.00022,89.99978,120.0015
7652,Fe2Rb2Se4,0.5315,15,7.2526,7.2526,6.205196,78.20476,78.20476,116.5206
7653,Hf1O3Sr1,3.7306,221,4.141193,4.141193,4.141193,90.0,90.0,90.0
7654,Ge2Na8O8,2.8134,2,5.742666,5.762104,8.667481,81.24408,71.34934,68.06262
7655,Fe2Li2O4,0.9684,141,5.274037,5.274037,5.274037,133.9695,133.9695,67.13562
7656,Au4Li12O12,2.0443,136,9.251887,9.251887,3.625925,90.0,90.0,90.0
7657,Ca1F3Li1,6.4547,221,3.771504,3.771504,3.771504,90.0,90.0,90.0
7658,Hf8O24Pb8,2.7366,55,5.900847,8.245166,11.78793,90.0,90.0,90.0
7659,Cd1Ga2Te4,1.0913,82,7.442703,7.442703,7.442703,130.2172,130.2172,73.05971
7660,Cd2Ga4O8,1.77,227,6.156348,6.156348,6.156348,60.0,60.0,60.0
7661,Cu3Se4V1,1.0547,215,5.653706,5.653706,5.653706,90.0,90.0,90.0
7662,Cl4K2Pd1,2.1869,123,7.1681,7.1681,4.179425,90.0,90.0,90.0
7663,Gd8O24W4,2.6335,15,10.01092,10.01092,5.475335,75.67562,75.67562,68.67746
7664,Mg8O16Si4,4.644,62,4.803701,6.049855,10.30943,90.0,90.0,90.0
7665,Mn8Se16Sn4,0.433,62,6.635129,8.008659,13.85177,90.0,89.99975,90.0
7666,Nb1Ni2Y1,0.0529,216,4.46491,4.46491,4.46491,60.0,60.0,60.0
7667,B4Ca2H16,5.0878,81,6.978645,6.978645,4.353121,90.0,90.0,90.0
7668,N22Pr6Si12,2.8745000000000003,100,10.17429,10.17429,4.8973510000000005,90.0,90.0,90.0
7669,Se20Sr4U8,0.5016,62,7.808216,8.374365,13.07113,89.97994,90.0,90.0
7670,O16Si4Zn8,3.2842000000000002,61,4.915132,5.040508,10.19196,90.0,90.0,90.0
7671,C24F20Se2,2.771,4,7.684531,9.564177,9.807228,73.73464,90.0,90.0
7672,As1F6K1,4.7861,166,5.059572,5.059572,5.059572,98.27268,98.27268,98.27268
7673,H8O16Ti6,1.1822,12,12.97559,12.97559,9.661486,65.79971,65.79971,15.59923
7674,Bi4Ge6O18,2.9809,176,7.078129,7.078041,10.09555,90.0,90.0,120.0013
7675,Cd12O32P8,2.3165,64,9.721354,9.721354,7.75751,90.0,90.0,106.5812
7676,Mo4O28Te8,2.7716000000000003,14,9.126334,4.406146,16.06561,83.40742,90.0,90.0
7677,Mg2O6Si2,5.7957,148,5.34227,5.34227,5.34227,53.20861,53.20861,53.20861
7678,Ba1O3Ti1,2.1363,221,4.058165,4.058165,4.058135,90.0,90.0,89.99933
7679,Dy8Mo4O24,2.0509,15,9.960799,9.960799,5.401339,74.89886,74.89886,68.01092
7680,Br4O1W1,1.2307000000000001,79,7.196234,7.196234,7.196234,94.20248,94.20248,148.5875
7681,Ba1N8Si6,3.2569,44,6.644254,6.644254,6.644254,136.9786,105.9998,89.61421
7682,As16Ca12Ge8,0.6025,14,18.06273,7.322693,7.345106,68.30309,90.0,90.0
7683,Ag2In2Te4,0.4045,122,7.953074,7.953074,7.953074,130.8629,130.8629,72.03106
7684,Ba6In4P8,1.1296,15,8.95284,8.95284,7.165953,89.81516,89.81516,75.63677
7685,Fe4O16Sb8,1.5304,14,8.720547,6.049016,8.822297,88.53416,90.0,90.0
7686,Ag12Au4Te8,0.578,214,9.140303,9.140303,9.140303,109.4712,109.4712,109.4712
7687,I4S4Sb4,1.3839000000000001,59,5.917812,6.379155,17.51327,90.0,90.0,90.0
7688,Na4O8S2,4.9761,70,7.95427,6.888859,5.764179,77.33538,57.67054,44.99409
7689,C2Na4O6,3.1995,194,5.262483,5.262483,6.34148,90.0,90.0,119.9889
7690,Li4Na4Se4,2.4681,62,4.273844,7.187192,7.747262,90.0,90.0,90.0
7691,Pd2Sc1Ta1,0.083,216,4.563398,4.563398,4.563398,60.0,60.0,60.0
7692,F3In1Si1,0.5268,221,4.376836,4.376836,4.376836,90.0,90.0,90.0
7693,O2Te2Th2,0.3956,129,4.26013,4.26013,7.727145,90.0,90.0,90.0
7694,Ba4P12Pt8,0.2615,14,5.82362,8.405049,11.74292,73.20569,90.0,90.0
7695,Ba9S24Ta6,0.8103,10,6.948301,12.2259,12.74911,70.85941,90.0,90.0
7696,F6H2Sr2,5.9478,11,3.982582,4.458614,8.173614,101.8679,90.0,90.0
7697,F3Mg1S1,0.5083,221,4.042038,4.042038,4.042038,90.0,90.0,90.0
7698,Ge2Mg2O6,2.4291,63,4.946699,4.946699,7.029961,90.0,90.0,146.4913
7699,C8Hg4N8,4.6574,122,8.326986,8.326986,8.326986,107.2414,107.2414,114.0293
7700,B16Li8O28,5.6179,110,8.694965,8.694965,8.694965,113.0972,113.0972,102.4398
7701,Cr1In1Ir1,0.0698,216,4.205096,4.205096,4.205096,60.0,60.0,60.0
7702,Br6Ca2In2,3.1194,63,7.506447,7.506447,10.94405,90.0,90.0,146.6786
7703,Ag1Ca1Sb1,0.17120000000000002,216,4.847384,4.847384,4.847384,60.0,60.0,60.0
7704,Ba1O3Ti1,2.1336,221,4.059628,4.059628,4.059628,90.0,90.0,90.0
7705,Ag1K1O1,0.184,216,4.341675,4.341675,4.341675,60.0,60.0,60.0
7706,F32Fe8K8,2.731,14,7.750942,7.937371,12.45793,90.0,90.04346,90.0
7707,O14Sr4Ta4,3.0457,36,14.01803,14.01803,5.765328,90.0,90.0,163.5826
7708,O18Sr2V8,2.182,85,8.46637,8.46637,5.473829,90.0,90.0,90.0
7709,In1S2Tl1,0.6811,166,7.840187,7.840187,7.840187,28.87263,28.87263,28.87263
7710,Br12K4Mn4,3.3389,62,4.117206,9.433438,15.47634,90.0,90.0,90.0
7711,C8Cs4Na4,3.2973,57,6.579601,6.921565,8.357228,90.0,90.0,90.0
7712,C4H2N6,4.4076,36,4.455619,4.455619,4.055536,90.0,90.0,119.0768
7713,Ca1Mg2Sb2,0.8074,164,4.687898,4.687898,7.597828,89.99814,90.00186,119.9989
7714,Al4Cs4Te12,1.3332,14,14.18231,7.383641,8.423674,75.83249,90.0,90.0
7715,As8Ba6Si4,0.8232,15,10.08953,10.08953,7.830425,74.99338,74.99338,122.6826
7716,Cl6Rb2Sn1,2.2592,225,7.412812,7.412812,7.412812,60.0,60.0,60.0
7717,Bi1F6Li1,2.7524,148,5.641464,5.641464,5.641464,56.83515,56.83515,56.83515
7718,Cd1Cu1F3,1.1320999999999999,221,4.374477,4.374477,4.374477,90.0,90.0,90.0
7719,Ho4O22Te8,3.236,15,6.739344,6.739344,16.34865,76.16869,76.16869,45.0111
7720,Al22Na2O34,4.5057,194,5.650429,5.650424,22.7964,90.0,90.0,120.0
7721,Ag2Se4Tb2,1.022,109,7.440128,7.440128,7.440128,134.904,134.904,65.67935
7722,Cu4Li4O4,1.6076000000000001,139,6.322968,6.322968,6.322968,95.39635,95.39635,144.283
7723,B4N8Na12,1.6905000000000001,14,7.949685,5.727424,7.882318,68.68406,90.0,90.0
7724,Ba4Cu2F12,2.6859,64,8.577898,8.577667,6.063703,90.00115,89.99988,139.5982
7725,Bi8Mn8O24,0.2657,4,5.711415,9.72246,10.01211,69.17901,90.0,90.0
7726,Br28Ga8Te8,1.292,14,11.71903,10.41057,14.34696,81.10619,90.0,90.0
7727,O3Pb1Ti1,2.1974,99,3.967572,3.967572,4.216031,90.0,90.0,90.0
7728,O8P2Sc2,4.885,141,5.577425,5.577425,5.577425,106.1263,106.1263,116.3907
7729,Ca2O6Si2,3.5326,127,5.089394,5.089394,3.627821,90.0,90.0,90.0
7730,In2O8P2,2.4873,63,4.862214,4.862214,6.883062,90.0,90.0,112.8375
7731,B12Ba6O24,4.7684,161,8.527815,8.527815,8.527815,96.08559,96.08559,96.08559
7732,Cu3K3P2,1.4959,166,7.419956,7.419956,7.419956,45.37063,45.37063,45.37063
7733,Cd1Ga2S4,2.1861,82,6.522067,6.522067,6.522067,128.6769,128.6769,75.53097
7734,Co18O36Te6,1.3846,15,8.729781,8.729781,10.49522,85.82628,85.82628,61.6335
7735,Er4Mn4O14,0.9107000000000001,227,7.061945,7.061945,7.061945,60.0,60.0,60.0
7736,F4K2Pd1,3.0875,12,5.851998,5.851998,4.287044,87.62754,87.62754,62.62206
7737,Dy8O28Si8,4.6211,2,6.655496,6.695866,12.15292,94.4156,91.26999,91.96738
7738,Ba5O15Ta4,3.1019,164,5.870509,5.870509,12.04127,90.0,90.0,120.0
7739,O14Sr2V6,2.0747,59,5.624816,5.370855,10.59225,90.0,90.0,90.0
7740,Ba2N20Si14,3.9161,7,6.760739,6.916559,9.685298,73.82551,90.0,90.0
7741,Ba3Ge12O27,3.0091,143,11.77425,11.77442,4.827973,90.00092,90.00055,120.0004
7742,P8S26V4,1.2218,2,9.646535,12.18992,9.938535,72.14881,69.87002,73.20565