,full_formula,band_gap,spacegroup.number,structure.lattice.a,structure.lattice.b,structure.lattice.c,structure.lattice.alpha,structure.lattice.beta,structure.lattice.gamma
3622,As4Br12,3.0654,19,4.597467,11.01738,13.03541,90.0,89.99512,90.0
3623,Co6O8,0.3108,227,5.96236,5.96236,5.96236,60.0,60.0,60.0
3624,Fe4Si4,0.8666,198,4.418927,4.418927,4.418927,90.0,90.0,90.0
3625,Na8S16,1.995,122,9.072166,9.072166,9.072166,115.5976,115.5976,97.81087
3626,O8V4,0.6787000000000001,14,4.510122,5.436489,5.435382,67.75059,90.0,90.0
3627,F4Mg2,6.8413,136,4.691586,4.691586,3.090698,90.0,90.0,90.0
3628,Bi2Se3,0.49470000000000003,166,10.36866,10.36866,10.36866,23.33145,23.33145,23.33145
3629,Cd2S2,1.26,186,4.188133,4.18779,6.813399,90.0,90.0,120.0027
3630,O6Si3,5.5364,180,5.103007,5.103007,5.593865,90.0,90.0,120.0
3631,F6Sb2,4.4925,40,4.628123,4.628123,7.167148,90.0,90.0,113.4011
3632,O12W4,1.4831,14,5.352909,5.394409,7.854238,89.48541,90.0,90.0
3633,C8Cs8,3.0701,62,5.071828,9.81599,10.52997,90.0,90.0,90.0
3634,O12U4,2.8862,19,5.355562,5.540267,7.773514,90.0,90.0,90.0
3635,Cl1K1,5.0574,225,4.507794,4.507794,4.507794,60.0,60.0,60.0
3636,Mg1O1,4.4684,225,3.00733,3.00733,3.00733,60.0,60.0,60.0
3637,Se1Sr1,2.2319,225,4.458848,4.458848,4.458848,60.0,60.0,60.0
3638,O6Si3,5.6986,5,4.967772,4.999237,5.472617,89.99527,89.62531,59.74218
3639,Cr4O6,2.3718,167,5.4499189999999995,5.4499189999999995,5.4499189999999995,55.68299,55.68299,55.68299
3640,Cl4Os1,1.2819,65,6.295737,6.295737,3.627671,90.0,90.0,95.22547
3641,O6Si3,5.7122,154,4.979297,4.979294,5.477793,89.99998,90.00005,120.0005
3642,O8Te4,2.7960000000000003,92,4.980479,4.980479,7.639887,90.0,90.0,90.0
3643,Ba8Si16,0.7793,62,6.766286,9.051196,11.59198,90.0,90.0,90.0
3644,As16La8,0.5008,9,9.813722,9.816459,9.203678,62.02483,62.05497,56.20014
3645,C12Os8,0.1621,116,5.008802,5.008802,7.937018,90.0,90.0,90.0
3646,Er16O24,3.9665,206,9.133157,9.133157,9.133157,109.4712,109.4712,109.4712
3647,Se1Yb1,1.3216,225,4.223856,4.223856,4.223856,60.0,60.0,60.0
3648,Al4O6,5.8527000000000005,167,5.180872,5.180872,5.180872,55.29084,55.29084,55.29084
3649,In16Se12,0.15180000000000002,58,4.155184,12.47988,15.49177,90.0,90.0,90.0
3650,Ag1I1,1.4673,225,4.358243,4.358243,4.358243,60.0,60.0,60.0
3651,Se4V3,0.4907,12,3.7630179999999998,3.7630179999999998,12.53368,91.18085,91.18085,60.26264
3652,N6Rb2,4.1866,140,5.931838,5.931838,5.931838,114.4658,114.4658,99.88672
3653,O24Y16,4.0561,206,9.267882,9.267882,9.267882,109.4712,109.4712,109.4712
3654,Cu3N1,0.5237,221,3.82306,3.82306,3.82306,90.0,90.0,90.0
3655,O4Si2,5.3686,227,5.274551,5.274551,5.274551,60.0,60.0,60.0
3656,Co2O2,1.011,186,3.306364,3.30649,5.26172,90.0,90.0,120.0013
3657,O8Ti4,2.2445,62,3.239467,5.271715,6.457979,90.0,90.0,90.0
3658,Al1N1,3.3062,216,3.111682,3.111682,3.111682,60.0,60.0,60.0
3659,Cl1K1,5.0396,225,4.51589,4.51589,4.51589,60.0,60.0,60.0
3660,F2Hg2,1.7558,139,6.156762,6.156762,6.156762,143.7361,143.7361,52.22214
3661,K16Si16,1.1831,142,11.45974,11.45974,11.45974,124.6565,124.6565,82.1077
3662,Cd12I24,2.3845,156,4.314756,4.314729,87.06984,90.00219,90.0,120.0002
3663,Mo4O12,1.8574000000000002,62,3.725161,3.954448,15.42105,90.0,90.0,90.0
3664,K8Sb8,0.7395,14,7.082269,7.296576,12.38403,83.10737,90.0,90.0
3665,O4Ti2,2.2578,136,4.674735,4.674735,3.024687,90.0,90.0,90.0
3666,O6Si3,5.7205,154,4.974121,4.973908,5.460674,90.00051,90.00057,120.0005
3667,Ge4Se4,0.8234,62,3.8978859999999997,4.483097,11.03248,90.0,90.0,90.0
3668,As1Ga1,0.29610000000000003,216,4.055139,4.055139,4.055139,60.0,60.0,60.0
3669,Ge20Ir16,0.0949,116,5.651561,5.651561,18.47687,90.0,90.0,90.0
3670,Bi2Te3,0.36910000000000004,166,10.75602,10.75602,10.75602,23.82946,23.82946,23.82946
3671,C2Si2,2.3044000000000002,186,3.091682,3.091857,5.072695,90.0,90.0,120.0019
3672,As6Li18,0.3957,165,7.5791509999999995,7.579251,7.565814,89.99954,90.0,120.0072
3673,Mg1O1,4.4711,225,3.007035,3.007035,3.007035,60.0,60.0,60.0
3674,P20Re8,0.6524,2,7.3913969999999996,8.412054,8.291836,110.1955,87.10401,112.1634
3675,H2Si2,2.1606,164,3.879129,3.879129,5.747837,90.00191,89.99809,120.0037
3676,In14Te20,0.8954000000000001,155,10.91094,10.91133,10.91133,88.90127,88.91454,88.90824
3677,Fe2Se4,1.1666,58,3.689501,4.847008,5.906066,90.0,90.0,90.0
3678,I10Nb2,1.0813,2,11.06248,8.047063,7.480844,64.0065,70.12843,66.72578
3679,Cd10I20,2.3806,156,4.312144,4.312144,72.62021,90.00225,89.99775,120.001
3680,Cr1I2,1.1861,12,4.375473,4.375473,7.943863,66.89231,66.89231,54.46568
3681,C6N8,3.1773,176,6.449774,6.449683,2.422461,90.0,90.0,120.0002
3682,Ba1S1,2.1516,225,4.565915,4.565915,4.565915,60.0,60.0,60.0
3683,Sr1Te1,0.4662,221,4.084539,4.084539,4.084539,90.0,90.0,90.0
3684,N8Si6,4.2458,176,7.661423,7.661423,2.925314,90.0,90.0,119.9994
3685,Ga1P1,1.6437,216,3.883854,3.883854,3.883854,60.0,60.0,60.0
3686,Gd16O24,3.6128,206,9.421828,9.421828,9.421828,109.4712,109.4712,109.4712
3687,O6Si3,5.7178,154,4.972633,4.972609,5.474405,89.99947,90.00108,120.0001
3688,Te1Zn1,1.4783,216,4.341013,4.341013,4.341013,60.0,60.0,60.0
3689,Pb2S2,1.1576,63,6.424379,6.424379,4.308921,90.0,90.0,141.9289
3690,O24W8,1.133,14,9.578717,6.245212,9.646265,85.12159,90.0,90.0
3691,Cl1Rb1,4.8414,225,4.734652,4.734652,4.734652,60.0,60.0,60.0
3692,S2Ti1,0.5467000000000001,164,3.481935,3.482064,6.173098,90.00493,90.00016,119.9985
3693,Ag2I2,2.0031,186,4.702902,4.702902,7.67279,90.0,90.0,119.9942
3694,As1Ga1,0.2947,216,4.055377,4.055377,4.055377,60.0,60.0,60.0
3695,O10V4,1.6665,11,3.611215,6.367948,7.547128,90.31393,90.0,90.0
3696,O2Zn2,1.8199,186,3.197331,3.197528,5.134005,90.0,90.0,120.002
3697,O48Si24,5.6618,180,17.3663,17.3663,13.01272,90.0,90.0,120.0
3698,H24O12,5.53,92,6.5377,6.5377,6.93617,90.0,90.0,90.0
3699,Br16Ge4,2.9982,14,7.530406,11.34793,11.53469,77.45808,90.0,90.0
3700,Al4O6,5.8353,167,5.17917,5.17917,5.17917,55.34642,55.34642,55.34642
3701,F2Pb1,4.3968,225,4.237238,4.237238,4.237238,60.0,60.0,60.0
3702,Ni4S8,0.355,205,5.788841,5.788841,5.788841,90.0,90.0,90.0
3703,O4Ti2,2.2647,136,4.671338,4.671338,3.024323,90.0,90.0,90.0
3704,Cl8O16,0.9777,61,5.7080210000000005,7.113258,10.91771,90.0,90.0,90.0
3705,Cr4O6,2.3738,167,5.448964,5.448964,5.448964,55.68165,55.68165,55.68165
3706,Se4Sn4,0.6742,62,4.251876,4.588567,11.89748,90.0,90.0,90.0
3707,Se20U12,0.5851000000000001,62,7.963779,8.540026,12.57512,89.99582,90.00691,90.00095
3708,Cl18W3,1.8843,164,11.36894,11.36894,6.264813,89.99807,90.00193,119.9995
3709,S2Zn2,2.7359999999999998,186,3.794288,3.794288,6.222718,90.0,90.0,119.9966
3710,Li2S1,3.3856,225,4.046128,4.046128,4.046128,60.0,60.0,60.0
3711,Sn1Te1,0.0746,225,4.562539,4.562539,4.562539,60.0,60.0,60.0
3712,Ge3O6,3.155,152,5.118351,5.118295,5.762378,89.99442,90.00441,120.0034
3713,Cl1Rb1,4.7648,221,4.001763,4.001763,4.001763,90.0,90.0,90.0
3714,O8Te4,3.0752,19,4.468131,5.11079,8.780664999999999,90.0,90.0,90.0
3715,Cd10I20,2.3974,156,4.315981,4.315981,72.5398,90.00266,89.99734,120.0009
3716,Mn4Te8,0.1696,205,7.073645,7.073645,7.073645,90.0,90.0,90.0
3717,Te4W2,0.874,194,3.565857,3.565779,14.72537,90.0,90.0,120.0007
3718,Mg1O1,4.4691,225,3.007259,3.007259,3.007259,60.0,60.0,60.0
3719,O8Ti4,2.8313,60,4.620221,5.024225,5.590564,90.0,90.0,90.0
3720,Hg3S3,1.5316,154,4.379961,4.380012,9.678442,89.98237,90.01267,120.0081
3721,F50I10,4.6986,15,8.608965,8.608965,18.87744,86.94264,86.94264,49.2557
3722,Pb1Te1,0.7988000000000001,225,4.636534,4.636534,4.636534,60.0,60.0,60.0
3723,Cd1Te1,0.7091000000000001,216,4.667967,4.667967,4.667967,60.0,60.0,60.0
3724,O8Sn4,0.1363,205,5.258094,5.258094,5.258094,90.0,90.0,90.0
3725,F18La6,7.6949000000000005,165,7.299204,7.299204,7.4636379999999996,90.00054,89.99946,120.0022
3726,Cl2Zr1,0.8416,160,7.253706,7.253706,7.253706,27.25262,27.25262,27.25262
3727,Hg3Te3,0.2364,154,4.66002,4.659975,10.36344,90.00097,90.00041,120.0008
3728,O24Si12,4.0431,167,10.90328,10.90328,10.90322,43.33007,43.32997,43.32471
3729,Pb1Te1,0.7966000000000001,225,4.634648,4.634648,4.634648,60.0,60.0,60.0
3730,F3Sc1,6.5706,221,4.123687,4.123687,4.123687,90.0,90.0,90.0
3731,F24U4,3.8224,62,5.454854,9.323368,10.28955,90.0,90.0,90.0
3732,O4Si2,5.0097,136,4.231693,4.231693,2.693447,90.0,90.0,90.0
3733,Cl6Gd2,3.9501,176,7.523923,7.52325,4.0934,90.0,90.0,120.0012
3734,Te1Zn1,1.467,216,4.344214,4.344214,4.344214,60.0,60.0,60.0
3735,P4Ru2,0.46290000000000003,58,2.896305,5.12805,5.93898,90.0,90.0,90.0
3736,Mg1O1,4.4693,225,3.007234,3.007234,3.007234,60.0,60.0,60.0
3737,B2N2,4.4564,194,2.5118169999999997,2.512538,8.120748,90.0,90.0,119.9905
3738,Nd2O3,3.6565000000000003,164,3.876176,3.875749,6.134737,89.99569,90.0,120.0036
3739,O6Si3,5.6803,152,5.0197330000000004,5.0197330000000004,5.5092479999999995,90.0,90.0,120.0
3740,F6Sn2,2.2442,225,6.271546,6.271546,6.271546,60.0,60.0,60.0
3741,Al4O6,5.8515,167,5.180858,5.180858,5.180858,55.2927,55.2927,55.2927
3742,O4Ti2,2.2588,136,4.674123,4.674123,3.025233,90.0,90.0,90.0
3743,Pb1S1,0.4652,225,4.246133,4.246133,4.246133,60.0,60.0,60.0
3744,H8O8,4.0563,92,3.325996,3.325996,11.31641,90.0,90.0,90.0
3745,La16O24,3.5281000000000002,206,9.992661,9.992661,9.992661,109.4712,109.4712,109.4712
3746,S24Zn24,2.6827,156,3.798535,3.7985100000000003,74.47951,89.99995,90.0,120.0002
3747,Al2N2,4.0649,186,3.127769,3.127769,5.01783,90.0,90.0,119.9961
3748,La4P28,0.41050000000000003,14,12.33084,7.400834,7.785975,83.34679,90.0,90.0
3749,F8Mg4,6.7295,205,5.009986,5.009986,5.009986,90.0,90.0,90.0
3750,Se6Tl4,0.7601,15,7.14491,7.14491,7.631185,71.80828,71.80828,53.15892
3751,Ge6N8,1.8007,176,8.133655,8.133569,3.1152,90.0,90.0,120.0006
3752,Ba4S6,1.5852,109,9.157487,9.157487,9.157487,141.1102,141.1102,56.17139
3753,O96Si48,1.9992,224,12.64016,12.64016,12.64016,90.0,90.0,90.0
3754,C2Ca1,1.3228,139,4.221459,4.221459,4.221459,125.1822,125.1822,81.23654
3755,N8Si6,4.2472,176,7.661271,7.661261,2.924946,90.0,90.0,120.0007
3756,Gd16O24,3.6143,206,9.42117,9.42117,9.42117,109.4712,109.4712,109.4712
3757,I6Sb2,2.1246,148,8.690829,8.690829,8.690829,52.31821,52.31821,52.31821
3758,N8O12,0.9371,19,5.301714,6.7145150000000005,9.028902,90.0,90.0,90.0
3759,F20U4,2.9408000000000003,122,8.652525,8.652525,8.652525,95.51381,95.51381,143.8843
3760,I12In4,2.3009,14,6.541938,10.358460000000001,12.89676,72.42578,90.00181,90.00483
3761,O6Si3,5.7124,154,4.982379,4.982319,5.467951,90.00057,89.99906,119.9992
3762,O16Si8,5.3667,64,6.883405,6.883405,9.062042,90.0,90.0,97.3884
3763,H24O12,5.4494,4,8.176661,3.974828,8.280965,90.01705,90.72193,89.99457
3764,Se1Zn1,1.6994,216,4.010182,4.010182,4.010182,60.0,60.0,60.0
3765,Hg4O4,1.2044,62,3.7132009999999998,5.842992,6.729589,90.0,90.0,90.0
3766,Be2O2,7.4628,186,2.7101379999999997,2.710036,4.401482,90.0,90.0,120.0012
3767,I2Pb1,2.3451,164,4.691571,4.6911629999999995,7.423733,90.00423,90.0,120.0029
3768,Cd1S1,0.4116,225,3.875811,3.875811,3.875811,60.0,60.0,60.0
3769,O6Si3,5.7217,154,4.974272,4.97421,5.466944,90.00035,89.99932,119.999
3770,Fe2S2,0.9821000000000001,63,3.436311,3.436311,5.371333,90.0,90.0,119.7549
3771,Cd12I24,2.3804,156,4.311203,4.311176,87.09754,90.00216,90.0,120.0002
3772,O12W4,1.3686,14,7.785002,3.9041129999999997,7.609076,90.02857,90.0,90.0
3773,Br1K1,3.8959,221,4.035092,4.035092,4.035092,90.0,90.0,90.0
3774,O6Si3,5.6902,154,5.006443,5.005652,5.473529,90.0019,90.00174,120.001
3775,Al4O6,5.8516,167,5.180193,5.180193,5.180193,55.29995,55.29995,55.29995
3776,O4Si2,5.0099,136,4.232028,4.232028,2.693309,90.0,90.0,90.0
3777,O10V4,1.4079000000000002,59,2.885538,5.853654,11.36677,90.0,90.0,90.0
3778,F1Li1,8.7394,225,2.884909,2.884909,2.884909,60.0,60.0,60.0
3779,Er1N1,0.1231,225,3.428001,3.428001,3.428001,60.0,60.0,60.0
3780,Be2I4,4.1243,72,7.728923,7.728923,7.728923,128.7064,133.3352,71.84465
3781,O16Si8,5.5447,15,7.235272,7.235272,7.216015,75.51183,75.51183,119.7067
3782,Cl2Ti1,2.6512000000000002,164,3.838052,3.837723,6.071411,90.12717,89.99962,120.0014
3783,F4Si1,7.6871,217,4.7581430000000005,4.7581430000000005,4.7581430000000005,109.4712,109.4712,109.4712
3784,F32Zr8,4.8993,84,8.050499,8.050499,7.856329,90.0,90.0,90.0
3785,P16S12,2.8047,62,6.983309,10.753730000000001,11.88585,90.0,90.0,90.0
3786,Bi8S12,1.3712,62,4.025325,11.20159,11.68751,90.0,90.0,90.0
3787,Cd1Te1,0.7092,216,4.667942,4.667942,4.667942,60.0,60.0,60.0
3788,Cd8I16,2.3805,164,4.313161,4.313121,58.2544,89.99981,90.0,120.0003
3789,Bi4I12,2.2809,62,7.331688,7.57607,12.58504,90.0,90.0,90.0
3790,Ca1S1,2.3838,225,4.043491,4.043491,4.043491,60.0,60.0,60.0
3791,S24Zn24,2.6857,156,3.798059,3.798031,74.4862,90.00003,90.0,120.0002
3792,S2Zr1,1.0155,164,3.692076,3.691786,6.230082,89.99468,90.0,120.0026
3793,H16S8,3.2277,142,8.158952,8.158952,8.158952,116.9444,116.9444,95.37939
3794,Bi2Br6,2.8597,12,7.379221,7.379221,7.484023,79.88279,79.88279,120.2525
3795,S2Zn2,2.7372,186,3.795383,3.7951509999999997,6.220399,90.0,90.0,120.002
3796,Br1Tl1,1.9503,221,4.035092,4.035092,4.035092,90.0,90.0,90.0
3797,Mg1O1,4.4696,225,3.007199,3.007199,3.007199,60.0,60.0,60.0
3798,Ge12S24,2.229,7,6.952641,22.88662,6.953156,90.00558,63.00224,89.99828
3799,S12Sb8,1.2827,62,3.869831,12.16006,11.2338,90.0,90.0,90.0
3800,F3Sc1,6.5706,221,4.123683,4.123683,4.123683,90.0,90.0,90.0
3801,Fe4P16,1.0257,15,5.830959,5.830959,11.16296,89.36886,89.36886,128.2503
3802,O4Ti2,2.2655,136,4.67121,4.67121,3.024067,90.0,90.0,90.0
3803,O4Zr2,3.894,137,3.648308,3.648308,5.324499,90.0,90.0,90.0
3804,P8Rh4,0.25570000000000004,14,5.83861,5.776395,5.874227,67.22916,90.0,90.0
3805,Se1Zn1,1.6961,216,4.011125,4.011125,4.011125,60.0,60.0,60.0
3806,Hf1Se2,0.5296000000000001,164,3.7689779999999997,3.768708,6.708841,89.99453,90.0,120.0024
3807,Fe2S4,1.7385000000000002,58,3.463472,4.491695,5.518099,90.0,90.0,90.0
3808,Ge1Mg2,0.19090000000000001,225,4.526204,4.526204,4.526204,60.0,60.0,60.0
3809,Ho2O3,4.2576,164,3.65422,3.653919,5.84996,89.99476,90.0,120.0027
3810,Cs4Te16,0.429,14,7.360115,8.161359,14.26731,86.49007,90.0,90.0
3811,O2Zn2,1.8262,186,3.198745,3.198536,5.125719,90.0,90.0,120.0022
3812,Rb8Te4,1.3844,62,6.128234,8.14501,10.65083,90.0,90.0,90.0
3813,In2Se2,0.38670000000000004,160,8.944284,8.944284,8.944284,26.35717,26.35717,26.35717
3814,O1Zn1,1.6867,216,3.180202,3.180202,3.180202,60.0,60.0,60.0
3815,Ba8Ge16,0.4732,62,6.868037,9.167857,11.70395,90.0,90.0,90.0
3816,As12Ba6,0.42350000000000004,7,12.77175,6.683607,6.692096,75.75779,90.00004,89.99996
3817,P1Sc1,1.7295,216,4.249553,4.249553,4.249553,60.0,60.0,60.0
3818,Mo3Si6,0.28700000000000003,180,4.626951,4.626951,6.620251,90.0,90.0,120.0
3819,O2Zr1,3.1251,225,3.641585,3.641585,3.641585,60.0,60.0,60.0
3820,Ge2O4,1.1859,136,4.475558,4.475558,2.915197,90.0,90.0,90.0
3821,I16In8,1.7433,52,8.52539,11.2177,11.4538,90.0,90.0,90.0
3822,As8Na8,0.7094,14,5.927766,6.261774,10.40158,84.29832,90.0,90.0
3823,Te3Zn3,0.5723,152,4.321779,4.321703,9.734399,90.00013,89.99992,119.9991
3824,Sn1Te1,0.07440000000000001,225,4.562431,4.562431,4.562431,60.0,60.0,60.0
3825,F3Sc1,6.5708,221,4.123636,4.123636,4.123636,90.0,90.0,90.0
3826,O10Ti6,0.8083,12,5.420387,5.420387,10.30493,90.94318,90.94318,41.97272
3827,F2Pb1,4.3969000000000005,225,4.240307,4.240307,4.240307,60.0,60.0,60.0
3828,Ge12Ru8,0.3816,116,5.763595,5.763595,9.33371,90.0,90.0,90.0
3829,Er8S12,0.6284000000000001,62,3.833083,10.41723,10.55645,90.0,90.0,90.0
3830,O16Si8,5.5485,15,7.234657,7.234657,7.218182,75.6254,75.6254,119.9329
3831,O8Zr4,3.4541,14,5.289043,5.211952,5.385655,80.42729,90.0,90.0
3832,Al4H12,3.1727,227,6.357282,6.357282,6.357282,60.0,60.0,60.0
3833,Hg3S3,1.6187,154,4.40513,4.404537,9.67686,90.00422,89.99964,120.0067
3834,Cd6I12,2.382,156,4.312222,4.312198,43.52388,90.00229,90.0,120.0002
3835,Mn1O1,0.1757,225,3.194285,3.194285,3.194285,60.0,60.0,60.0
3836,Te1Zn1,1.4782,216,4.341036,4.341036,4.341036,60.0,60.0,60.0
3837,O24Si12,5.697,36,11.28754,11.28754,5.101521,90.0,90.0,102.9246
3838,O2Zn2,1.8224,186,3.1993489999999998,3.199146,5.128827,90.0,90.0,120.0021
3839,Cs20Sb32,0.6054,14,11.67752,7.464816,28.37094,82.80272,90.0,90.0
3840,Br16Ti4,3.0161,14,7.371315,11.01454,11.01587,77.95328,90.0,90.0
3841,Ho16O24,3.9425,206,9.191882,9.191882,9.191882,109.4712,109.4712,109.4712
3842,Cs8Te52,0.4787,57,7.384246,14.10766,23.5378,90.0,90.0,90.0
3843,S1Zn1,2.6773,216,3.798279,3.798279,3.798279,60.0,60.0,60.0
3844,O24Yb16,0.404,206,9.004453,9.004453,9.004453,109.4712,109.4712,109.4712
3845,Cr8O21,1.5537,2,5.511255,12.67574,6.716881,74.69137,77.86349,84.82943
3846,Al4O6,5.848,167,5.180418,5.180418,5.180418,55.30651,55.30651,55.30651
3847,Co1I2,2.044,164,4.09708,4.09708,7.360554,90.00402,89.99598,120.0012
3848,Al4O6,5.8484,167,5.180859,5.180859,5.180859,55.29862,55.29862,55.29862
3849,K4Se6,0.6304000000000001,36,6.587283,6.587283,7.7437439999999995,90.0,90.0,108.7548
3850,Dy1N1,0.0505,225,3.473883,3.473883,3.473883,60.0,60.0,60.0
3851,Lu4S6,2.5639000000000003,167,7.178559,7.178559,7.178559,55.89414,55.89414,55.89414
3852,In16Te12,0.11420000000000001,58,4.500036,12.94187,15.86016,90.0,90.0,90.0
3853,Pb1S1,0.4646,225,4.245843,4.245843,4.245843,60.0,60.0,60.0
3854,F8Pb4,4.3636,62,3.944995,6.553646,7.832082,90.0,90.0,90.0
3855,As16S16,2.3726000000000003,14,18.59519,7.6260390000000005,9.770189,82.79689,90.0,90.0
3856,F16Sn8,3.3417,15,7.105587,7.105587,14.31367,73.96767,73.96767,42.77065
3857,B1N1,4.4561,216,2.5635019999999997,2.5635019999999997,2.5635019999999997,60.0,60.0,60.0
3858,Rb8Sb8,0.5447000000000001,19,7.3626249999999995,7.4902619999999995,12.99986,90.0,90.0,90.0
3859,F18La6,7.664,165,7.310087,7.310014,7.484644,90.00077,90.0,120.0003
3860,Os2Sb4,0.46590000000000004,58,3.247928,5.999445,6.7709150000000005,90.0,90.0,90.0
3861,Mn4O8,0.9115000000000001,62,2.930879,4.606945,9.452106,90.0,90.0,90.0
3862,B12C3,1.5163,166,5.18684,5.18684,5.18684,65.92328,65.92328,65.92328
3863,Cl1K1,4.8085,221,3.836055,3.836055,3.836055,90.0,90.0,90.0
3864,Fe12O16,0.7822,227,5.741858,5.744072,8.116212,90.0,90.0,90.0
3865,F4Mn2,2.5858,136,4.971716,4.971716,3.342005,90.0,90.0,90.0
3866,In12Se18,1.0711,169,7.310373,7.310373,19.66578,90.0,90.0,120.0
3867,Fe4S8,2.0322,205,5.528524,5.528524,5.528524,90.0,90.0,90.0
3868,Te10Zr2,0.0752,63,8.047155,8.047155,13.84287,90.0,90.0,150.8333
3869,As16Ge8,0.5335,55,3.781678,10.44646,15.16688,90.0,90.0,90.0
3870,O12Sb8,2.2212,56,5.213609,5.518739,12.62896,90.0,90.0,90.0
3871,Ni1O1,1.7917,225,2.988806,2.988806,2.988806,60.0,60.0,60.0
3872,O6Si3,5.8086,154,4.89785,4.894013,5.493177,90.00024,90.00927,120.0083
3873,O6V4,0.032,167,5.559627,5.559627,5.559627,54.78824,54.78824,54.78824
3874,O4Sn2,0.38430000000000003,58,3.296254,4.860506,4.939789,90.0,90.0,90.0
3875,Bi16Rb16,0.3931,14,7.624499,14.14977,15.02741,66.62868,90.0,90.0
3876,Bi8S12,1.3735,62,4.023833,11.19919,11.6689,90.0,90.0,90.0
3877,Ni1O1,1.7921,225,2.987681,2.987681,2.987681,60.05807,60.05807,60.05807
3878,As8Na8,0.5245000000000001,19,5.972284,6.261072,10.53668,90.0,90.0,90.0
3879,O8Si4,0.3239,13,4.684679,4.680906,7.780627,79.64183,90.0,90.0
3880,Bi1F5,1.9723000000000002,87,5.362056,5.362056,5.362056,99.48047,99.48047,132.1116
3881,Nd2O3,3.6219,164,3.88062,3.88062,6.121012,89.99602,90.00398,119.9944
3882,O16Pb12,1.141,135,9.037112,9.037112,6.774843,90.0,90.0,90.0
3883,Se20U12,0.5728,62,7.946294,8.534482,12.56826,90.00284,90.0,90.0
3884,F4Fe2,2.6481,136,4.781627,4.781627,3.343843,90.0,90.0,90.0
3885,S20Zn20,2.6901,156,3.798213,3.798202,62.0809,90.00004,90.0,120.0001
3886,Al4O6,5.8494,167,5.180567,5.180567,5.180567,55.30039,55.30039,55.30039
3887,S8Ti4,0.36760000000000004,62,3.73272,6.572654,8.256416,90.0,90.0,90.0
3888,Ca2Cl4,5.3526,136,6.439874,6.439874,4.211136,90.0,90.0,90.0
3889,Te10Zr2,0.07730000000000001,63,8.02534,8.02534,13.83605,90.0,90.0,150.7444
3890,Mg1Te1,2.3161,216,4.606249,4.606249,4.606249,60.0,60.0,60.0
3891,Sn4Sr8,0.2354,62,5.410602,8.465305,10.1805,90.0,90.0,90.0
3892,F8Ge4,4.0982,19,4.745366,5.266209,8.319543,90.0,90.0,90.0
3893,O4Si2,5.0095,136,4.231736,4.231736,2.693455,90.0,90.0,90.0
3894,Ir4N8,0.2232,14,4.926044,4.859513,4.900545,72.01307,90.0,90.0
3895,Mn2Se2,0.8284,194,3.899906,3.899906,6.499171,90.0,90.0,120.005
3896,C38H68,5.402,4,7.688988,11.217,10.97752,75.4433,90.0,90.0