,full_formula,band_gap,spacegroup.number,structure.lattice.a,structure.lattice.b,structure.lattice.c,structure.lattice.alpha,structure.lattice.beta,structure.lattice.gamma
844,Ge3O6,3.1399,152,5.064607,5.064565,5.746796,89.99941,90.00072,119.9999
845,O24Sc16,4.2768,206,8.701702,8.701702,8.701702,109.4712,109.4712,109.4712
846,I8O16,1.4924,14,7.045611,8.121428,8.354229,63.26096,90.0,90.0
847,P16Zn24,0.6924,137,7.991712,7.991712,11.29084,90.0,90.0,90.0
848,O2Zn2,1.8258,186,3.198496,3.198496,5.126013,90.0,90.0,119.9962
849,Er16O24,3.9686,206,9.133687,9.133687,9.133687,109.4712,109.4712,109.4712
850,Cl32In32,2.1727,198,12.5049,12.5049,12.5049,89.99923,89.99923,89.99923
851,O4Ti2,2.5511,141,5.572791,5.572791,5.572791,139.4382,139.4382,58.70737
852,Bi2Te3,0.3698,166,10.74914,10.74914,10.74914,23.82026,23.82026,23.82026
853,O6Si3,5.7294,154,4.968322,4.968447,5.470084,89.99968,89.99973,120.0002
854,O4Ti2,2.2595,136,4.673304,4.673304,3.023433,90.0,90.0,90.0
855,Br8Th2,3.0243,141,7.715717,7.715717,7.715717,106.7827,106.7827,114.9935
856,Se2Zr1,0.31570000000000004,164,3.805234,3.805234,6.536488,90.0039,89.9961,120.0003
857,O4Ti2,2.5495,141,5.573401,5.573401,5.573401,139.4331,139.4331,58.71504
858,Ca24N16,1.1141,206,9.937398,9.937398,9.937398,109.4712,109.4712,109.4712
859,Pb36Rb16,0.3164,11,13.58554,10.0813,16.48226,76.84241,90.0,90.0
860,Cd1Te1,0.7091000000000001,216,4.667966,4.667966,4.667966,60.0,60.0,60.0
861,B2N2,4.1634,194,2.511694,2.511694,8.004813,90.0,90.0,119.9963
862,S4V5,0.5106,87,7.000717,7.000717,7.000717,93.86711,93.86711,149.8958
863,O32Si16,1.3602,125,12.366530000000001,12.366530000000001,4.372109,90.0,90.0,90.0
864,Li2S1,3.3852,225,4.04535,4.04535,4.04535,60.0,60.0,60.0
865,O6Pb4,1.0396,11,4.866098,4.838877,6.979793,89.67966,90.0,90.0
866,Te1Zn1,1.4772,216,4.341314,4.341314,4.341314,60.0,60.0,60.0
867,As1Ga1,0.2948,216,4.055359,4.055359,4.055359,60.0,60.0,60.0
868,F4Mn2,2.5862,136,4.972476,4.972476,3.34295,90.0,90.0,90.0
869,C14Si14,1.8119,156,3.094728,3.094726,35.42128,90.0,90.0,120.0
870,Cd10I20,2.3789,156,4.313374,4.313375,73.25794,89.99892,90.00107,120.0013
871,Mg1S1,2.7704,225,3.693228,3.693228,3.693228,60.0,60.0,60.0
872,Cl20P4,1.7659,85,9.745205,9.745205,7.616597,90.0,90.0,90.0
873,I2Mg1,3.6017,164,4.203703,4.203703,7.48707,89.99788,90.00212,120.0086
874,Hg4O4,1.2118,62,3.7118409999999997,5.842086,6.709068,90.0,90.0,90.0
875,F4Fe2,2.6319,136,4.796718,4.796718,3.331672,90.0,90.0,90.0
876,P8Pt4,0.8721,205,5.742014,5.742014,5.742014,90.0,90.0,90.0
877,Ag1Br1,1.5727,225,4.12134,4.12134,4.12134,60.0,60.0,60.0
878,O4Zr2,3.8792,137,3.643913,3.643913,5.30946,90.0,90.0,90.0
879,Hg3S3,1.5849,154,9.681448,4.388518,4.390668,59.99953,89.99661,89.99318
880,H12N4,4.3318,198,5.131307,5.131307,5.131307,90.0,90.0,90.0
881,Be1Te1,2.0189,216,4.008369,4.008369,4.008369,60.0,60.0,60.0
882,Ba1Se1,1.9488,225,4.7275659999999995,4.7275659999999995,4.7275659999999995,60.0,60.0,60.0
883,Mg2Te2,2.3633,186,4.599254,4.598337,7.528847,90.0,90.0,120.0066
884,Ni1O1,1.7913000000000001,225,2.98863,2.98863,2.98863,60.0,60.0,60.0
885,F4Sr2,5.8653,194,4.156411,4.156411,5.953882,90.0,90.0,119.9973
886,C2F8,8.9097,15,4.960534,4.960534,9.389882,60.75894,60.75894,52.50791
887,Ba2P20,1.291,36,7.264632,7.264632,12.13558,90.0,90.0,126.8976
888,S2Sn1,1.3677000000000001,164,3.749377,3.749303,6.73915,89.99933,90.00001,120.0007
889,C2Yb1,0.1694,139,4.193534,4.193534,4.193534,125.3811,125.3811,80.90776
890,O4Ti2,2.5682,141,5.595039,5.595039,5.595039,139.6257,139.6257,58.42199
891,Eu1S1,0.6994,225,4.240405,4.240405,4.240405,60.0,60.0,60.0
892,O4Ti2,2.2633,136,4.673412,4.673412,3.022326,90.0,90.0,90.0
893,F6Ti2,2.0078,167,5.529896,5.529896,5.529896,61.59861,61.59861,61.59861
894,Ca1O1,3.6356,225,3.421844,3.421844,3.421844,60.0,60.0,60.0
895,F4Tl4,3.1455,57,5.321838,5.663361,6.361191,90.0,90.0,90.0
896,O6Si3,5.6848,154,5.018684,5.018684,5.504324,90.0,90.0,120.0
897,B12O2,1.8609,166,5.151841,5.151841,5.151841,63.10211,63.10211,63.10211
898,Gd16O24,3.6193,206,9.420142,9.420142,9.420142,109.4712,109.4712,109.4712
899,O4Ti2,2.2683,136,4.674888,4.674888,3.024708,90.0,90.0,90.0
900,Pb1Te1,0.7989,225,4.636538,4.636538,4.636538,60.0,60.0,60.0
901,Br1Li1,4.9243,225,3.897674,3.897674,3.897674,60.0,60.0,60.0
902,F4Mg2,6.8225999999999996,136,3.094749,4.69413,4.696125,90.0,90.0,90.0
903,O4Si2,5.0098,136,4.231686,4.231686,2.693449,90.0,90.0,90.0
904,Ag2Br2,1.5679,11,4.111123,4.128139,5.825178,90.33319,90.0,90.0
905,Al4O6,5.854,167,5.179035,5.179035,5.179035,55.31139,55.31139,55.31139
906,Eu1S1,0.7163,225,4.245118,4.245118,4.245118,60.0,60.0,60.0
907,Cl20P4,1.7596,85,9.828168999999999,9.828168999999999,7.593699,90.0,90.0,90.0
908,O6Si3,5.6897,154,5.00059,5.000172,5.489539,90.00083,89.99991,120.0004
909,O4Si2,5.3685,227,5.274555,5.274555,5.274555,60.0,60.0,60.0
910,K16Pb36,0.25780000000000003,11,13.41918,9.826898,16.12758,76.66047,90.0,90.0
911,S2W1,1.3661,160,6.94802,6.94802,6.94802,26.64898,26.64898,26.64898
912,Cd1Se1,0.6412,216,4.370451,4.370451,4.370451,60.0,60.0,60.0
913,As16S16,2.3554,14,18.17382,7.706281,9.803442,84.2934,90.0,90.0
914,O24Yb16,0.4062,206,8.998388,8.998388,8.998388,109.4712,109.4712,109.4712
915,F4Mg2,6.843,136,4.688135,4.688135,3.09287,90.0,90.0,90.0
916,C1Si1,1.3706,216,3.096775,3.096775,3.096775,60.0,60.0,60.0
917,I32Pt8,0.8150000000000001,61,6.963717,14.04668,15.84966,90.0,90.0,90.0
918,Ni4S8,0.3522,205,5.787316,5.787316,5.787316,90.0,90.0,90.0
919,F4Ni2,3.9979,136,4.704378,4.704378,3.116691,90.0,90.0,90.0
920,Sn1Te1,0.0746,225,4.562539,4.562539,4.562539,60.0,60.0,60.0
921,O4Si2,5.0125,136,4.233301,4.233301,2.69271,90.0,90.0,90.0
922,N16Si12,4.6615,159,7.80693,7.80693,5.660778,89.99999,89.99999,119.9997
923,O24Yb16,0.3945,206,8.997133,8.997133,8.997133,109.4712,109.4712,109.4712
924,N16S16,0.26130000000000003,14,8.752320000000001,8.649947,10.69877,101.0866,90.0,90.0
925,O2Pt1,2.0402,164,3.138807,3.138807,4.641175,89.9958,90.0042,119.9992
926,K8P12,1.0221,70,10.34354,8.572817,8.408827,119.3649,113.9723,78.50917
927,Mn1S1,0.8193,225,3.735982,3.735982,3.735982,60.0,60.0,60.0
928,Er1N1,0.123,225,3.428035,3.428035,3.428035,60.0,60.0,60.0
929,F6Fe2,2.681,167,5.461148,5.461148,5.461148,57.68182,57.68182,57.68182
930,I1Li1,4.23,225,4.260814,4.260814,4.260814,60.0,60.0,60.0
931,In12S14,0.32680000000000003,11,3.929719,9.207598,17.5317,77.98641,90.0,90.0
932,Cl2Sr1,5.2221,225,4.983913,4.983913,4.983913,60.0,60.0,60.0
933,F4Pd2,1.3412,136,5.070674,5.070674,3.475663,90.0,90.0,90.0
934,O6Si3,5.7258,154,4.976252,4.976314,5.470495,89.99988,89.99992,120.0002
935,C6Si6,2.0177,186,3.094822,3.094813,15.18401,90.0,90.0,120.0001
936,S2Zr1,0.9996,164,3.6865449999999997,3.686509,6.259266,90.00224,90.0,120.0003
937,Rb4Te2,1.3745,194,6.146065,6.145725,8.114764,90.0,90.0,120.0018
938,K2N6,4.16,140,5.681049,5.681049,5.681049,113.769,113.769,101.1805
939,As4Ge3,0.1408,215,5.513501,5.513501,5.514143,90.0,90.0,90.0
940,F6Mo2,2.505,167,5.79253,5.79253,5.79253,54.84732,54.84732,54.84732
941,N8Si6,4.2449,176,7.660122,7.6601300000000005,2.924916,90.0,90.0,119.9999
942,S3Ti3,0.1511,166,9.837031,9.837031,9.837031,21.79599,21.79599,21.79599
943,B2N2,4.4979,194,2.51258,2.51258,7.983051,90.0,90.0,119.9836
944,Se4Sn4,0.6568,62,4.274597,4.516115,11.99082,90.0,90.0,90.0
945,Co2Se2,0.106,194,3.791254,3.791532,6.055364,90.0,90.0,119.9976
946,Cr8S12,0.0704,163,6.106668,6.106668,11.4649,90.00043,90.00043,120.0014
947,O6Si3,5.6995000000000005,152,4.979543,4.979022,5.498958,89.9989,90.00289,119.9914
948,Sn1Te1,0.07440000000000001,225,4.562426,4.562426,4.562426,60.0,60.0,60.0
949,H16S8,4.2051,73,7.832838,7.832838,7.832838,115.3265,114.7211,98.8601
950,O6Si3,5.7085,154,4.988074,4.988074,5.482662,90.0,90.0,120.0001
951,O4Ti2,2.2664,136,4.672612,4.672612,3.023232,90.0,90.0,90.0
952,S12Sc8,1.7529,62,6.285426,6.824431,9.694452,90.0,90.0,90.0
953,Pb1Te1,0.7988000000000001,225,4.6365359999999995,4.6365359999999995,4.6365359999999995,60.0,60.0,60.0
954,O2Th1,4.5405,225,4.119783,4.119783,4.119783,60.0,60.0,60.0
955,Cd2S2,1.2626,186,4.19022,4.189878,6.806373,90.0,90.0,120.0027
956,Bi16O24,2.346,14,7.404723,9.455205,10.3521,76.85233,90.0,90.0
957,Mg1O1,4.468,225,3.007378,3.007378,3.007378,60.0,60.0,60.0
958,Al4O6,5.8385,167,5.178931,5.178931,5.178931,55.34241,55.34241,55.34241
959,Cl8O4,1.0613,141,7.468291,7.468291,7.468291,115.5253,115.5253,97.94256
960,O1Zn1,2.1296,225,2.977363,2.977363,2.977363,60.0,60.0,60.0
961,Cd2S2,1.2623,186,4.190619,4.190619,6.80582,90.0,90.0,119.9951
962,O1V1,0.5352,225,3.152028,3.152028,3.152028,60.0,60.0,60.0
963,Ag1I1,1.9771,216,4.703714,4.703714,4.703714,60.0,60.0,60.0
964,Mg1O1,4.4692,225,3.007238,3.007238,3.007238,60.0,60.0,60.0
965,S32Tl32,0.8016000000000001,92,8.018158,8.018158,29.94586,90.0,90.0,90.0
966,O3Pr2,3.1333,164,3.9041300000000003,3.9041300000000003,6.091279,89.99836,90.00164,119.9974
967,K6Se6,0.71,189,9.017371,9.017331,6.095882,90.0,90.0,120.0001
968,H8Yb4,1.8131,62,3.585311,5.857201,6.697111,90.0,90.0,90.0
969,Bi8O12,2.2786,14,8.335064,5.927167,7.604678,66.59982,90.0,90.0
970,O4Ti2,2.2651,136,4.673652,4.673652,3.023573,90.0,90.0,90.0
971,O16Si8,3.9364,70,12.93913,10.73739,7.970474,86.18145,55.89349,37.92506
972,Mo2S4,1.195,194,3.197467,3.197467,13.18556,90.0,90.0,119.9978
973,Te1Zn1,1.4769,216,4.341396,4.341396,4.341396,60.0,60.0,60.0
974,Se2V2,0.7125,194,3.833018,3.833018,6.304061,90.0,90.0,120.0035
975,Cl6Tb2,3.8003,63,6.878972,6.878972,8.581773,90.0,90.0,147.7488
976,Cl4Pd2,1.4917,14,4.1337019999999995,5.7813669999999995,6.494515,72.92021,90.0,90.0
977,O24Y16,4.0587,206,9.268975,9.268975,9.268975,109.4712,109.4712,109.4712
978,O20V12,0.9537,2,5.853315,9.103064,9.299965,55.09088,90.00929,90.04304
979,O2Zn2,1.8096,186,3.189351,3.189351,5.155952,90.0,90.0,119.9964
980,O4Ti2,2.2582,136,4.678347,4.678347,3.021478,90.0,90.0,90.0
981,O4Si2,5.0055,136,4.234147,4.234147,2.6926259999999997,90.0,90.0,90.0
982,Cs32Ge32,1.3876,218,13.85176,13.85176,13.85176,90.0,90.0,90.0
983,Ba2S6,1.3677000000000001,113,6.987043,6.987043,4.231985,90.0,90.0,90.0
984,F4Mg2,6.8394,136,4.691606,4.691606,3.091501,90.0,90.0,90.0
985,S26Zn26,2.3454,156,3.793219,3.793212,80.65735,89.99977,90.0,120.0001
986,N8Si6,4.0348,220,5.617059,5.617059,5.617059,109.4712,109.4712,109.4712
987,Ir24Si40,0.9468000000000001,14,14.21009,6.434888,10.443200000000001,83.12893,90.0,90.0
988,O16Se8,3.2674,135,8.69283,8.69283,5.20415,90.0,90.0,90.0
989,O6V4,0.032600000000000004,167,5.5599,5.5599,5.5599,54.78024,54.78024,54.78024
990,Ba6P8,0.4786,43,11.88592,9.727022,8.130794,82.92038,54.30427,42.75216
991,Li2S1,3.3856,225,4.046135,4.046135,4.046135,60.0,60.0,60.0
992,Fe2Se2,0.48,129,4.251176,4.251176,5.60212,90.0,90.0,89.89383
993,As16Se12,1.667,62,8.688271,10.0413,11.01464,90.0,90.0,90.0
994,Re8S16,1.3025,2,6.43243,13.80148,6.532361,75.34004,61.1362,77.26949
995,Cl6La2,4.4715,176,7.633191,7.633205,4.401671,90.0,90.0,120.0006
996,O8Si4,5.535,92,5.039284,5.039284,7.005882,90.0,90.0,90.0
997,S12Sb8,1.2831000000000001,62,3.870084,11.23604,12.14824,90.0,90.0,90.0
998,As16S18,1.7438,13,10.42948,9.593663,10.67799,79.0816,90.0,90.0
999,Cd1Te1,0.7091000000000001,216,4.667968,4.667968,4.667968,60.0,60.0,60.0
1000,Cs32Si32,1.5716,218,13.71575,13.71575,13.71575,90.0,90.0,90.0
1001,Ru8Si12,0.3859,116,5.576576,5.576576,8.913528,90.0,90.0,90.0
1002,Fe2Se2,0.6033000000000001,129,4.227743,4.227743,6.123037,90.0,90.0,90.0
1003,H1Na1,3.8156,225,3.381449,3.381449,3.381449,60.0,60.0,60.0
1004,Cd12I24,2.2698,156,4.314231,4.314205,86.81679,90.00164,90.0,120.0002
1005,In4Te10,0.8397,9,8.813233,8.813233,14.05713,89.6239,89.6239,151.3309
1006,I2Pb1,2.3316,164,4.664711,4.664711,7.289515,90.00466,89.99534,120.0014
1007,S16Zn16,2.6934,156,3.798077,3.798034,49.70119,90.00003,90.0,120.0004
1008,O4Ti2,2.266,136,4.672582,4.672582,3.023094,90.0,90.0,90.0
1009,Pb1Se1,0.3981,225,4.38672,4.38672,4.38672,60.0,60.0,60.0
1010,O2Th1,4.5405,225,4.119783,4.119783,4.119783,60.0,60.0,60.0
1011,S2Ti1,0.5334,164,3.473691,3.47369,6.233547,89.99983,90.00016,120.0006
1012,Ce8S12,0.7704000000000001,62,4.130924,7.598593,15.8302,90.0,90.0,90.0
1013,Se1Zn1,1.6972,216,4.010811,4.010811,4.010811,60.0,60.0,60.0
1014,Al2N2,4.0639,186,3.127763,3.127763,5.019468,90.0,90.0,119.9956
1015,Cl1K1,5.0545,225,4.509088,4.509088,4.509088,60.0,60.0,60.0
1016,S4W2,1.3718,194,3.202266,3.202266,13.46537,90.0,90.0,119.9997
1017,O4Ti2,2.2609,136,4.669427,4.669427,3.02302,90.0,90.0,90.0
1018,Hf1Se2,0.5051,164,3.768099,3.768037,6.5546869999999995,90.00036,90.0,120.0005
1019,Fe4S8,2.0187,205,5.522029,5.522029,5.522029,90.0,90.0,90.0
1020,Br6Pr2,2.8048,176,8.047069,8.048843,4.439598,90.0,90.0,119.9636
1021,O8Zr4,3.4628,14,5.290214,5.214755,5.395424,80.38798,90.0,90.0
1022,O6Si3,5.6803,154,5.025954,5.025794,5.504079,90.0018,90.00366,119.9992
1023,O3U1,1.83,164,3.846554,3.846521,4.186818,89.99814,90.0,120.0003
1024,Co9S8,0.5427000000000001,225,7.689681,7.689681,7.689681,60.0,60.0,60.0
1025,Ho1N1,0.08510000000000001,225,3.449919,3.449919,3.449919,60.0,60.0,60.0
1026,Al1F3,7.4209,221,3.639012,3.639012,3.639012,90.0,90.0,90.0
1027,Ce6O9,2.669,12,7.6675059999999995,7.6675059999999995,9.210388,79.92639,79.92639,28.40544
1028,Ga4O6,2.1534,12,6.364129,6.364129,5.865132,76.6015,76.6015,27.9371
1029,O16P8,4.5182,15,7.262237,7.262237,7.334232,84.873,84.873,93.26247
1030,Nd8Te12,0.0523,62,4.445826,12.03248,12.35802,90.04566,90.0,90.0
1031,C6Si6,2.0173,186,3.094552,3.094546,15.18575,90.0,90.0,120.0001
1032,O24Si12,5.4049,162,11.73345,11.73345,4.440139,90.0,90.0,120.0
1033,Er1N1,0.1228,225,3.427845,3.427845,3.427845,60.0,60.0,60.0
1034,Lu1N1,0.19840000000000002,225,3.34632,3.34632,3.34632,60.0,60.0,60.0
1035,Ni1O1,1.7922,225,2.987908,2.987908,2.987908,60.04907,60.04907,60.04907
1036,O2Zn2,1.8208000000000002,186,3.197422,3.197422,5.132986,90.0,90.0,119.9965
1037,Se1Yb1,1.4375,225,4.261895,4.261895,4.261895,60.0,60.0,60.0
1038,H4Sr2,1.2934,194,4.106138,4.106092,5.651965,90.0,90.0,120.0004
1039,F12Tl4,1.2472,62,5.041988,5.913891,7.269522,90.0,90.0,90.0
1040,O2Zn2,1.8227,186,3.197985,3.197985,5.130301,90.0,90.0,119.9964
1041,Cl1K1,4.8498,221,3.823489,3.823489,3.823489,90.0,90.0,90.0
1042,F4Tl4,3.1421,57,5.321263,5.653206,6.357964,90.0,90.0,90.0
1043,Ge2O4,1.2116,58,2.910475,4.451508,4.512366,90.0,90.0,90.0
1044,Ce1O2,2.4183,225,3.885098,3.885098,3.885098,60.0,60.0,60.0
1045,Mg1O1,4.4717,225,3.006977,3.006977,3.006977,60.0,60.0,60.0
1046,As4Te6,0.44370000000000004,12,7.682656,7.682656,10.09385,84.42098,84.42098,30.74807
1047,Li2O1,4.904,225,3.288698,3.288698,3.288698,60.0,60.0,60.0
1048,Ga4O6,2.6365,167,5.373549,5.373549,5.373549,55.85119,55.85119,55.85119
1049,Cr4S6,0.09820000000000001,148,6.723444,6.723444,6.723444,54.02734,54.02734,54.02734
1050,Be2O2,7.4456,186,2.711901,2.711914,4.400688,90.0,90.0,119.9998
1051,Nd2O4,3.1717,12,3.943187,3.943187,6.603657,83.25167,83.25167,62.3241
1052,Cr4O6,2.3718,167,5.449947,5.449947,5.449947,55.68204,55.68204,55.68204
1053,Mn4S8,1.2253,205,5.647353,5.647353,5.647353,90.0,90.0,90.0
1054,As4Os2,0.8904000000000001,58,3.048995,5.461869,6.267445,90.0,90.0,90.0
1055,O1Zn1,2.1351,225,2.976575,2.976575,2.976575,60.0,60.0,60.0
1056,O4Si2,5.0091,136,4.233561,4.233561,2.692783,90.0,90.0,90.0
1057,Ni1O1,1.7913000000000001,225,2.987504,2.987504,2.987504,60.05019,60.05019,60.05019
1058,Ru4S8,1.2704,205,5.67806,5.67806,5.67806,90.0,90.0,90.0
1059,O24Si12,5.4277,63,11.40121,11.40121,5.281811,90.00006,89.99994,103.6074
1060,O24Tb16,3.9046000000000003,206,9.301731,9.301731,9.301731,109.4712,109.4712,109.4712
1061,O20P8,4.8344000000000005,62,4.939934,7.331566,9.659952,89.99994,89.99894,90.0
1062,O2Zn2,1.8178,186,3.196345,3.196345,5.13741,90.0,90.0,119.9966
1063,Ca1S1,2.3841,225,4.043665,4.043665,4.043665,60.0,60.0,60.0
1064,P16Zn24,0.6706000000000001,206,9.785024,9.785024,9.785024,109.4712,109.4712,109.4712
1065,Dy8S12,0.5935,62,3.874149,10.475530000000001,10.65342,90.0,90.0,90.0
1066,Te1Zn1,1.4782,216,4.341036,4.341036,4.341036,60.0,60.0,60.0
1067,Bi8S12,1.3718,62,4.025035,11.18941,11.68312,89.99493,90.0,90.0
1068,I24Zr6,2.0214,13,8.892996,8.983663,18.48623,76.94642,90.0,90.0
1069,As16S12,2.245,62,8.71029,9.716001,10.86056,90.0,90.0,90.0
1070,Cd9I18,2.3744,164,4.312459,4.31243,65.39825,89.99865,90.0,120.0002
1071,F18La6,7.6727,165,7.307279,7.307279,7.475777,89.99987,90.00013,120.0006
1072,Te2V2,0.8107000000000001,194,4.154606,4.154606,6.582444,90.0,90.0,120.0018
1073,Br1Li1,4.9243,225,3.897671,3.897671,3.897671,60.0,60.0,60.0
1074,N5P3,2.6031,44,7.02198,7.02198,7.02198,158.4224,142.7548,43.45016
1075,Br8Te16,0.6018,62,4.053164,13.47352,16.50281,90.0,90.0,90.0
1076,As8Rh4,0.2141,14,6.16352,6.130741,6.221501,65.22921,90.0,90.0
1077,As8S8,2.0205,15,7.2704,7.2704,9.51106,81.03328,81.03328,85.30745
1078,F2Pb1,4.3969000000000005,225,4.242202,4.242202,4.242202,60.0,60.0,60.0
1079,O8Zr4,3.4608,14,5.295251,5.209516,5.390475,80.49094,90.0,90.0
1080,Se1Zn1,1.6954,216,4.011322,4.011322,4.011322,60.0,60.0,60.0
1081,Se1Sn1,0.0324,225,4.317843,4.317843,4.317843,60.0,60.0,60.0
1082,S6Sr2,1.0649,41,5.439167,5.439167,7.011812,90.0,90.0,96.52397
1083,O6Si3,5.7156,154,4.972869,4.972881,5.473532,89.99989,90.00027,120.0007
1084,Hf2S6,1.1075,11,3.610165,5.148239,9.547009,82.89574,90.0,90.0
1085,Ga2N2,1.9224,186,3.203664,3.203664,5.216355,90.0,90.0,119.9981
1086,S2Sn2,0.9233,63,6.030723,6.030723,5.897906,90.0,90.0,142.5276
1087,As8O12,4.0209,227,8.186806,8.186806,8.186806,60.0,60.0,60.0
1088,Gd16O24,3.6181,206,9.421165,9.421165,9.421165,109.4712,109.4712,109.4712
1089,Ge2O4,1.2045,136,4.477254,4.477254,2.91108,90.0,90.0,90.0
1090,Dy16O24,3.9276,206,9.24463,9.24463,9.24463,109.4712,109.4712,109.4712
1091,In2Se2,0.3509,160,8.904764,8.904764,8.904764,26.4897,26.4897,26.4897
1092,Ge16Se32,1.4079000000000002,14,17.23052,7.200949,12.66003,89.0981,90.0,90.0
1093,Al1As1,1.5011,216,4.054012,4.054012,4.054012,60.0,60.0,60.0
1094,B12P2,2.488,166,5.251456,5.251456,5.251456,69.57549,69.57549,69.57549
1095,Pd4Se8,0.49350000000000005,61,5.789424,5.934956,8.253368,90.0,90.0,90.0
1096,I16Nb6,0.226,166,15.99439,15.99439,15.99439,27.86907,27.86907,27.86907
1097,Fe2Se2,0.47550000000000003,129,4.247901,4.247901,5.536303,90.0,90.0,90.11713
1098,Ge4S4,1.2001,62,3.640953,4.440073,10.808440000000001,90.0,90.0,90.0
1099,Na6O6,1.7514,189,6.255789,6.255699,4.488141,90.0,90.0,120.0005
1100,Ge2O4,1.2055,136,4.474754,4.474754,2.912182,90.0,90.0,90.0
1101,O4Ti2,2.2664,136,4.672229,4.672229,3.023555,90.0,90.0,90.0
1102,Cl1K1,5.0487,225,4.511723,4.511723,4.511723,60.0,60.0,60.0
1103,Cu3N1,0.5236000000000001,221,3.823013,3.823013,3.823013,90.0,90.0,90.0
1104,Pd24Se24,0.39880000000000004,135,11.77,11.77,7.125175,90.0,90.0,90.0
1105,Ca24N16,1.1167,206,9.935206,9.935206,9.935206,109.4712,109.4712,109.4712
1106,As2Mg3,0.8976000000000001,164,4.293224,4.292959,6.757631,89.99933,90.0,120.002
1107,Mo2Te4,0.85,194,3.561784,3.561784,14.64708,90.0,90.0,119.9994
1108,Br1Na1,4.1288,225,4.242642,4.242642,4.242642,60.0,60.0,60.0
1109,C6Si6,2.0208,186,3.094776,3.094776,15.18561,90.0,90.0,119.9997
1110,C1Ge1,1.6477,216,3.251529,3.251529,3.251529,60.0,60.0,60.0
1111,S1Zn1,2.6777,216,3.798187,3.798187,3.798187,60.0,60.0,60.0
1112,Te6U2,0.2459,11,4.324649,6.201451,10.759,96.67466,90.0,90.0
1113,S8Zn4,1.7184,205,5.918951,5.918951,5.918951,90.0,90.0,90.0
1114,Br30W6,0.6174000000000001,12,14.17318,14.17318,6.541443,89.63539,89.63539,86.58675
1115,F1Li1,7.4855,221,2.5616659999999998,2.5616659999999998,2.5616659999999998,90.0,90.0,90.0
1116,Br6Ti2,2.2688,2,6.772513,6.771171,7.7744789999999995,64.36154,63.55825,59.1696
1117,O16Sn8,0.2499,61,5.229443,5.325694,10.29966,90.0,90.0,90.0
1118,Eu1S1,0.7168,225,4.245238,4.245238,4.245238,60.0,60.0,60.0
1119,Fe4S8,2.0196,205,5.522034,5.522034,5.522034,90.0,90.0,90.0
1120,Hg3S3,1.5519,154,4.393732,4.394189,9.661726999999999,90.01173,90.00124,120.0003
1121,Se2Ti1,0.0572,164,3.623853,3.623853,6.527817,90.00442,89.99558,120.001
1122,O8Si4,5.5224,92,5.064235,5.064235,7.110271,90.0,90.0,90.0
1123,O9W3,0.7576,191,7.481136,7.481136,3.8468679999999997,90.0,90.0,120.0