,full_formula,band_gap,spacegroup.number,structure.lattice.a,structure.lattice.b,structure.lattice.c,structure.lattice.alpha,structure.lattice.beta,structure.lattice.gamma
8530,Co1F6Sn1,2.6951,148,5.635435,5.635435,5.635435,56.67317,56.67317,56.67317
8531,Br8Pd8Te6,0.9405,2,8.703632,8.630484,9.048709,98.22235,107.6678,88.80957
8532,Cu8Mo10O34,1.0132,2,6.905744,9.738942,11.12416,106.9116,87.89991,111.825
8533,Cr1H1O2,2.8984,166,4.766795,4.766795,4.766795,37.41801,37.41801,37.41801
8534,Gd4O14Sn4,2.1547,227,7.552464,7.552464,7.552464,60.0,60.0,60.0
8535,K1S2Ti1,1.9267,160,7.634855,7.634855,7.634855,28.6921,28.6921,28.6921
8536,F40Sb8Xe4,0.9141,14,9.695264,10.28684,12.5284,83.46748,90.0,90.0
8537,Al1Li1Si1,0.113,216,4.199879,4.199879,4.199879,60.0,60.0,60.0
8538,Ag4As4S4,0.16970000000000002,62,3.9470549999999998,6.199672,12.1598,90.0,90.0,90.0
8539,Ir4P4Se4,1.5084,198,5.8489629999999995,5.8489629999999995,5.8489629999999995,90.0,90.0,90.0
8540,O48S12Y8,5.703,60,9.308692,9.401063,12.951,90.0,90.0,90.0
8541,Ag1F12Sb2,1.6978,2,5.352822,9.365675,5.600329,68.82637,65.17563,76.52409
8542,Ca2Cl1N1,2.3763,166,6.985843,6.985843,6.985843,30.46983,30.46983,30.46983
8543,B2P4Rb6,1.5759,15,6.71827,6.71827,9.495536,75.57774,75.57774,88.24216
8544,Ba2O4Sn1,2.0804,139,7.369055,7.369055,7.369055,146.2672,146.2672,48.45003
8545,B2H12N2,6.0175,31,4.965263,5.174068,5.618303,90.0,90.0,90.0
8546,N32O16Si32,4.4107,141,5.494496,5.494614,23.36505,90.0,90.0,90.0
8547,Ge8In32S32,1.1202,205,12.41354,12.41354,12.41354,90.0,90.0,90.0
8548,O20Si4Y8,3.0804,15,5.866634,5.866634,14.0861,83.5042,83.5042,63.63895
8549,As4Rb12Se16,1.1912,62,9.866076,10.3681,11.519,90.0,90.0,90.0
8550,Cs8O16Ru4,1.3356,62,6.619524,8.65776,11.74178,90.0,90.0,90.0
8551,Cl6K2Re1,2.2895,225,7.126647,7.126647,7.126647,60.0,60.0,60.0
8552,Bi8K2Se13,0.8013,12,13.98074,12.34438,4.217803,89.954,98.69085,92.14308
8553,Lu2O8P2,5.9883,141,5.67125,5.67125,5.67125,106.0394,106.0394,116.5771
8554,Ba1O3Ti1,2.1319,221,4.060515,4.060515,4.060515,90.0,90.0,90.0
8555,H2Mg1O2,4.2004,164,3.182455,3.182455,4.767866,90.0031,89.99691,120.0015
8556,In1La1O3,2.0563,221,4.166375,4.166375,4.166375,90.0,90.0,90.0
8557,La2Ni1O4,0.1771,139,6.9363589999999995,6.9363589999999995,6.9363589999999995,147.0927,147.0927,47.22654
8558,I4Nb12Se48,0.198,114,9.779918,9.779918,19.42537,90.0,90.0,90.0
8559,Ba1Mo6S8,0.083,148,6.764552,6.764552,6.764552,88.8971,88.8971,88.8971
8560,Bi8I4Ru2,0.534,87,9.245864,9.245864,9.245864,97.81423,97.81423,136.7254
8561,Bi4Ga4O12,1.9081000000000001,54,5.188597,5.494189,10.08896,90.0,90.0,90.0
8562,Ge2P4Zn2,1.2414,122,6.649294,6.649294,6.649294,131.2368,131.2368,71.43711
8563,K2Mn2Sb2,0.29350000000000004,129,4.812317,4.812317,8.27495,90.0,90.0,90.0
8564,K8Se16Sn6,1.3382,68,14.83442,14.83442,8.419832,90.0,90.0,146.8668
8565,Li2Nb2O6,3.4091,161,5.547006,5.547006,5.547006,55.905590000000004,55.905590000000004,55.905590000000004
8566,Cu2Hg1I4,0.9503,121,7.702936,7.702936,7.702936,132.8193,132.8193,68.9381
8567,Ag3Bi3Se6,0.43610000000000004,164,4.19377,4.19377,20.09621,90.00129,89.99871,119.9995
8568,Ce4O14Zr4,2.9911000000000003,227,7.698015,7.698015,7.698015,60.0,60.0,60.0
8569,Al4O24S6,6.0201,148,8.599488000000001,8.599488000000001,8.599488000000001,56.66309,56.66309,56.66309
8570,Ho6La2S12,1.0304,11,4.016581,11.38496,11.1064,71.21499,90.0,90.0
8571,Fe8O20P4,1.2928,62,6.535443,7.486312,7.56496,90.0,90.0,90.0
8572,B2H12N2,6.0607,4,6.064141,4.65337,4.700016,86.96527,90.0,90.0
8573,Cu2Ga2Se4,0.4121,122,6.890801,6.890801,6.890801,131.2209,131.2209,71.46235
8574,La4O12Ru4,0.7010000000000001,62,5.6893329999999995,5.671783,8.205716,90.0,90.0,90.0
8575,F6Na2Th1,6.4751,150,6.134215,6.134215,3.984747,90.0,90.0,120.0
8576,Cu2F6K2,1.2831000000000001,127,5.927448,5.927448,3.988176,90.0,90.0,90.0
8577,H2Nd2O4,3.8746,11,3.8721550000000002,4.152373,6.658981,66.43751,90.0,90.0
8578,As2Cs2F8,4.6001,4,4.920867,6.748894,8.726357,67.72069,90.0,90.0
8579,Ba2F8Ni2,4.0367,36,7.711504,7.711504,5.895103,90.0,90.0,148.3246
8580,Al8O20Si4,4.8436,58,5.611579,7.8698500000000005,7.9791,90.0,90.0,90.0
8581,Fe1Hf2Hg1,0.2016,216,4.660028,4.660028,4.660028,60.0,60.0,60.0
8582,F8H4P4,3.7999,19,4.701245,6.567881,8.165738,90.0,90.0,90.0
8583,F30Fe10K6,0.0368,100,12.975530000000001,12.97471,4.028632,90.0,90.0,90.0
8584,Cs2O7U2,2.5618,12,7.732411,7.732411,7.604658,67.0764,67.0764,33.094
8585,Cu24O48W8,0.9373,205,9.915157,9.915157,9.915157,90.0,90.0,90.0
8586,Cs2Pd3Se4,1.2122,69,9.190688,7.987856,6.526553,77.85682,58.17669,43.96649
8587,Ca4Mn4O12,0.3855,62,5.333161,5.412,7.568473,90.0,90.0,90.0
8588,H12O16P4,5.9128,14,4.828959,5.902362,11.9038,83.65466,90.0,90.0
8589,I2Sb2Te2,0.8603000000000001,12,7.72548,7.651849,7.651269,147.3847,102.0148,87.022
8590,Br4O16Tl4,3.0192,62,6.295587,7.8932009999999995,9.383647,90.0,90.0,90.0
8591,La8O28Si8,5.1689,14,8.906708,5.543881,13.35559,89.70493,90.0,90.0
8592,Ge2Hg4O8,0.9771000000000001,70,8.057072,6.745098,6.507151,74.86272,53.91243,51.22486
8593,Cu2In2S4,0.40340000000000004,122,6.8586469999999995,6.8586469999999995,6.8586469999999995,132.0465,132.0465,70.15564
8594,Pt1Ta1Tl1,1.0031,216,4.470335,4.470335,4.470335,60.0,60.0,60.0
8595,Al4H12O12,5.0865,2,6.265808,7.0146,5.059441,80.81684,81.38637,83.55199
8596,F8Mn2Na2,2.1071,14,4.996015,5.8802900000000005,5.897136,71.1991,90.0,90.0
8597,Ce1Mo6Se8,0.20670000000000002,148,6.810057,6.810057,6.810057,88.95374,88.95374,88.95374
8598,Al24Ca2O38,4.3335,194,5.6142520000000005,5.6142769999999995,22.04719,90.0,90.0,119.9998
8599,Ba8O20Tl8,0.5949,62,6.498503,6.110133,17.51502,90.0,90.0,90.0
8600,Br15Co1Th6,0.7006,229,10.30434,10.30434,10.30434,109.4712,109.4712,109.4712
8601,O6Ti2Zn2,3.5033,148,5.498503,5.498503,5.498503,55.49365,55.49365,55.49365
8602,Cd4Nb4O14,2.0812,227,7.430959,7.430959,7.430959,60.0,60.0,60.0
8603,Ge2Se8Yb4,0.9819,11,7.03699,6.893598,8.061921,72.84048,90.0,90.0
8604,Ge4Pt4S4,0.9061,29,5.924802,5.964448,5.896526,90.0,90.0,90.0
8605,Al4H4O8,3.9628,59,3.210204,4.101488,13.671240000000001,90.0,90.0,90.0
8606,As2O8Tb2,3.6548,141,5.996205,5.996205,5.996205,106.4205,106.4205,115.7618
8607,C6O8Tl4,2.9164,5,7.39454,7.39454,7.483852,75.19605,75.19605,55.01717
8608,K6O18S6,4.9256,150,10.1408,10.14079,6.47006,90.00506,89.99497,120.0109
8609,B6Co4O13,3.7277,217,6.542151,6.542151,6.542151,109.4712,109.4712,109.4712
8610,Bi2O8P2,3.7271,11,7.238002,4.770738,4.834785,83.85824,90.0,90.0
8611,Ag4Al4O8,1.4608,33,5.483111,5.449046,7.077639,90.0,90.0,90.0
8612,Ba7Cl2F12,6.0575,174,10.80677,10.80685,4.225439,90.0,90.0,120.0014
8613,B8O24Zn12,3.4733,2,9.934942,8.245687,6.362887,107.8037,89.48863,90.30188
8614,Al2La2O6,3.1712,167,5.414783,5.415639,5.415639,60.0,59.99477,59.99477
8615,Li8O16S4,6.0143,14,5.037581,8.532863,8.340292,73.61674,90.0,90.0
8616,Cd1Ga2Se4,1.4113,82,6.864613,6.864613,6.864613,129.629,129.629,74.00059
8617,Cl16O4Os4,1.5438,14,6.069136,10.31113,12.86381,69.4883,90.0,90.0
8618,Bi2Ca1Mg2,0.46140000000000003,164,4.784489,4.784489,7.711272,89.9981,90.0019,120.0025
8619,As4Si2Zn2,1.1219000000000001,122,6.802348,6.802348,6.802348,130.8236,130.8236,72.0935
8620,Ag1Cr1S2,0.9454,160,7.190438,7.190438,7.190438,28.94968,28.94968,28.94968
8621,B4H16K4,1.4006,62,3.412365,8.917832,8.053244,90.0,90.0,90.0
8622,B1Be1F3,2.7785,221,3.5775959999999998,3.5775959999999998,3.5775959999999998,90.0,90.0,90.0
8623,Rb8Se60Th28,1.4456,14,8.08483,15.77563,22.41745,89.79075,90.0,90.0
8624,Lu4Mn2S8,1.4839,227,7.757172,7.757172,7.757172,60.0,60.0,60.0
8625,Bi4Fe8O18,1.6011000000000002,55,6.021236,8.105862,8.685724,90.0,90.0,90.0
8626,Cr4Mn2S8,0.9038,227,7.276332,7.276332,7.276332,60.0,60.0,60.0
8627,O3Sr1Ti1,2.2935,221,3.970719,3.970719,3.970719,90.0,90.0,90.0
8628,Al2O6Pr2,3.907,167,5.3675370000000004,5.3675370000000004,5.3675370000000004,60.25464,60.25464,60.25464
8629,Ba8F40Fe8,1.7431,14,7.5194469999999995,10.48659,13.22971,88.76074,90.0,90.0
8630,Ce1Fe4P12,0.5863,204,6.748724,6.748724,6.748724,109.4712,109.4712,109.4712
8631,Cr2O8Y2,0.6387,88,6.72637,6.72637,6.72637,135.8182,135.8182,64.26148
8632,Cs4Fe4I16,1.2187000000000001,14,19.02395,7.545004,8.647053,72.25927,90.0,90.0
8633,Ho2O2S1,3.0362999999999998,164,3.790775,3.7907729999999997,6.587612,90.00482,89.99518,119.9972
8634,K8S40Ta8,1.2402,14,6.473415,17.77196,17.16977,64.2325,90.0,90.0
8635,Al3As3O12,3.8764000000000003,152,5.116703,5.116731,11.41676,89.99974,90.00031,120.0009
8636,Cu16Ge2S12,0.7806000000000001,31,6.984225,7.0608319999999996,9.858016,90.0,90.0,90.0
8637,Ho8P8S32,2.1538,142,12.19538,12.19538,12.19538,127.5896,127.5896,77.29083
8638,Cu2Ga2Te4,0.43,122,7.454792,7.454792,7.454792,131.6219,131.6219,70.82683
8639,O14Sr2V6,2.058,59,5.517892,5.372675,10.60561,90.0,90.0,90.0
8640,Cl20K4Pb8,3.6311,14,8.123602,8.960369,12.75909,89.83883,90.0,90.0
8641,O24Te8Th4,1.4206,14,11.25935,9.169235,6.461157,68.20533,90.0,90.0
8642,Al4Ba12Sb12,0.47140000000000004,64,11.30017,11.30017,14.2665,90.0,90.0,142.4278
8643,C24Cr4O24,3.6213,62,6.543139,11.5494,12.21525,90.0,90.0,90.0
8644,Ga2Te4Tl2,0.4963,140,7.00496,7.00496,7.00496,104.0682,104.0682,120.9203
8645,Ge2Mn2O6,1.6408,148,5.667888,5.667888,5.667888,53.53268,53.53268,53.53268
8646,I16In4Li4,2.3653,14,7.979732,8.397265,15.45236,87.76742,90.0,90.0
8647,Cr2Eu2O8,0.2985,141,6.292541,6.292541,6.292541,105.7013,105.7013,117.3069
8648,Cl18Cs6Cu6,1.2098,178,7.382767,7.382767,18.46106,90.0,90.0,120.0
8649,F6Rb2Rh1,1.3276,164,6.027888,6.027888,5.010847,90.00049,89.99951,120.0057
8650,Au1O3V1,0.027700000000000002,221,3.829546,3.829546,3.829546,90.0,90.0,90.0
8651,Eu4Ge2Se8,1.3057,4,7.235773,7.038624,8.447077,72.16658,90.0,90.0
8652,Os1Pb1Sc2,0.14200000000000002,216,4.7669809999999995,4.7669809999999995,4.7669809999999995,60.0,60.0,60.0
8653,Al2La2O6,3.5214,167,5.420645,5.420645,5.420645,60.1077,60.1077,60.1077
8654,N2Na1Nb1,1.1427,166,5.9596789999999995,5.9596789999999995,5.9596789999999995,30.63088,30.63088,30.63088
8655,O8Rb3Ta1,2.9938000000000002,121,6.551388,6.551388,6.551388,113.2745,113.2745,102.1064
8656,K4O14S4,5.2137,15,7.365551,7.365551,7.439933,88.1533,88.1533,60.99671
8657,Mg16O48Si16,4.6695,61,5.235215,8.932835,18.45275,90.0,90.0,90.0
8658,O14Ti4Y4,3.289,227,7.24237,7.24237,7.24237,60.0,60.0,60.0
8659,Ba8Mn4S12,1.8603,62,4.373288,8.964036,17.31275,90.0,90.0,90.0
8660,Fe4O8Si2,2.4049,227,5.894413,5.894413,5.894413,60.0,60.0,60.0
8661,K4O6Sn4,1.3409,199,7.413315,7.413315,7.413315,109.4712,109.4712,109.4712
8662,C4Ca16N16,1.8009,62,3.575617,11.48536,14.00128,90.0,90.0,90.0
8663,H24O24P8,7.0879,33,7.010514,7.368838,12.253,90.00042,90.0,90.0
8664,Li6O8V2,4.0073,31,5.017398,5.517762,6.407194,90.0,90.0,90.0
8665,Al4P8Sr6,1.3332,15,8.361262,8.361262,6.699539,89.14186,89.14186,75.34616
8666,Ce4O28P8,2.2386,205,8.919838,8.919838,8.919838,90.0,90.0,90.0
8667,Al9Cl36Tb3,4.2186,151,10.88957,10.89943,16.09652,90.02206,89.94899,120.0178
8668,Ge4N8Zn4,2.0833,33,5.187017,5.470663,6.422677,90.0,90.0,90.0
8669,Fe2Na12Se8,1.625,36,9.379058,9.407793,7.201797,90.0,90.0,119.899
8670,Er4O18Se6,3.9297,2,7.056079,8.088022,9.036988,71.62138,70.07045,66.03874
8671,Ca4F20Fe4,3.3386,14,10.25222,5.588718,7.732778,70.11287,90.0,90.0
8672,Ba1F3Li1,6.5604,221,4.056547,4.056547,4.056547,90.0,90.0,90.0
8673,Cd8Ge2Se12,0.7891,9,7.583583,7.583583,13.17472,72.82814,72.82814,60.15927
8674,H20N12O12,3.2406,14,6.7369,7.367993,10.09984,80.4595,90.0,90.0
8675,Rb2Se4Te1,0.9195000000000001,12,7.1481069999999995,7.1481069999999995,5.412987,70.3179,70.3179,76.60828
8676,Ga2Mn2S5,0.24230000000000002,164,3.740596,3.740596,15.56301,89.99478,90.00522,119.9988
8677,Na1Nb1O3,1.8362,221,3.9870609999999997,3.9870609999999997,3.9870609999999997,90.0,90.0,90.0
8678,Cu2Ga2S4,1.1386,122,6.523542,6.523542,6.523542,131.4071,131.4071,71.16705
8679,Cl8O12Si8,5.674,148,8.707713,8.707713,8.707713,95.73184,95.73184,95.73184
8680,B16Li8O28,5.6186,110,8.695564,8.695564,8.695564,113.0819,113.0819,102.4688
8681,O36S8Sb8,4.0001,92,6.723856,6.723856,18.22062,90.0,90.0,90.00205
8682,Al4H12O12,5.8004,62,5.026524,5.030537,7.028525,90.0,90.0,90.0
8683,Cr4O8Zn2,2.6344000000000003,227,5.951635,5.951676,5.951676,59.99954,60.00023,60.00023
8684,Ag4O8Se2,1.3808,70,8.515432,7.30539,6.152398,77.98783,57.04678,44.96539
8685,La1Pt1Sb1,0.259,216,4.856074,4.856074,4.856074,60.0,60.0,60.0
8686,Co8O28V8,2.5735,14,8.491825,6.709308,9.614499,79.33493,90.0,90.0
8687,K2O8Tc2,3.2635,88,7.743749,7.743749,7.743749,136.2213,136.2213,63.63832
8688,C8H16N16,4.5395,61,7.016421,7.36432,8.708848,90.0,90.0,90.0
8689,Mg8Se16Si4,2.1333,62,6.295028,7.912216,13.51334,90.0,90.0,90.0
8690,Se24Sn8Tl16,0.8589,62,8.224171,8.414162,21.69683,90.0,90.0,90.0
8691,As4Na12S12,2.5147,198,8.596733,8.596733,8.596733,90.0,90.0,90.0
8692,K4O18Si8,4.4218,2,12.30948,4.994775,8.494316,90.93024,109.009,89.63045
8693,Al4H4O8,3.9125,59,3.660357,2.914131,14.9807,90.0,90.0,90.0
8694,Ni4O8Si2,2.9474,227,5.739604,5.739604,5.739604,60.0,60.0,60.0
8695,H72N36Ni18,2.1567,200,10.92141,10.92141,10.92141,90.0,90.0,90.0
8696,Cd1F3Ga1,3.7363,221,4.43451,4.43451,4.43451,90.0,90.0,90.0
8697,F3Na1Si1,0.5782,221,4.266252,4.266252,4.266252,90.0,90.0,90.0
8698,H16I12N4,1.8061,62,6.847298,9.89148,10.89096,90.0,90.0,90.0
8699,Fe2S4Tl2,0.5909,12,6.791919,6.791919,6.9901979999999995,65.18125,65.18125,51.3299
8700,O4S1Zn1,4.7991,216,5.466453,5.466453,5.466453,60.0,60.0,60.0
8701,As4Ge2Zn2,0.1386,122,6.9701,6.9701,6.9701,131.3388,131.3388,71.27542
8702,Na8O28W8,3.8462,64,7.074384,7.074384,15.02679,90.0,90.0,117.5961
8703,Co4La6S14,0.0148,4,10.34563,10.32365,5.994483,90.0,90.0,120.2272
8704,Br22Cs2Nb8,0.32270000000000004,51,7.450498,7.309528,17.54883,90.0,90.0,90.0
8705,O25P6Si5,5.6031,148,9.324643,9.324643,9.324643,50.67831,50.67831,50.67831
8706,Al1Mn1Ti2,0.0678,216,4.334436,4.334436,4.334436,60.0,60.0,60.0
8707,Ca1F6Rh1,1.2968,148,5.858917,5.858917,5.858917,55.0189,55.0189,55.0189
8708,Al2O6Pr2,3.9466,167,5.3652,5.3652,5.3652,60.24999,60.24999,60.24999
8709,Er2O2S1,3.0735,164,3.7679460000000002,3.767769,6.563504,89.99876,90.0,120.0016
8710,Al2La2O6,3.5821,167,5.415033,5.415033,5.415033,60.13006,60.13006,60.13006
8711,Au4Ca2O8,1.8417,88,6.6600909999999995,6.6600909999999995,6.6600909999999995,125.666,125.666,80.43776
8712,K4O6Te2,3.5757,147,6.411448,6.411858,7.181836,90.00217,89.99664,119.9973
8713,Nb1O3Rb1,1.6141,221,4.081632,4.081632,4.081632,90.0,90.0,90.0
8714,Ga1Ir1La2,0.18460000000000001,216,4.998965,4.998965,4.998965,60.0,60.0,60.0
8715,H20N12O12,3.2058,14,6.617323,7.479924,9.82135,73.36171,90.0,90.0
8716,K2Pt1Te2,0.9371,71,6.866059,6.866059,6.866059,145.9416,109.0726,81.06967
8717,Cs1K2Sb1,0.8783000000000001,225,6.185754,6.185754,6.185754,60.0,60.0,60.0
8718,Al4Ca56Sb44,0.6112000000000001,142,16.32186,16.32186,16.32186,118.3289,118.3289,92.91967
8719,C16F24O20,5.3098,14,7.861947,5.09259,20.97333,83.31021,90.0,90.0
8720,B1O3Sc1,2.2431,221,3.396899,3.396899,3.396899,90.0,90.0,90.0
8721,Cr2Cu2O8,1.0843,63,5.2835090000000005,5.2835090000000005,5.95851,90.0,90.0,117.3462
8722,Cs2F6Pb2,3.3055,161,6.852697,6.852697,6.852697,61.0777,61.0777,61.0777
8723,B4Cs4Se12,1.6356000000000002,14,13.17058,6.274852,7.85958,73.37724,90.0,90.0
8724,Ba1O4S1,4.5111,216,5.222334,5.222334,5.222334,60.0,60.0,60.0
8725,Ni6O16P4,3.2467,14,4.745188,5.890879,10.22262,89.14999,90.0,90.0
8726,Ce2O18P6,5.3544,20,7.177251,7.177251,7.471075,90.0,90.0,105.1909
8727,O3Sn1Ti1,1.7296,221,3.982229,3.982229,3.982229,90.0,90.0,90.0
8728,I4S4Sb4,1.6320999999999999,33,4.124923,9.029897,10.70745,90.0,90.0,90.0
8729,Gd2H6O6,3.5772,176,6.414525,6.414523,3.6417539999999997,90.0,90.0,120.0006
8730,As2Cu6S8,0.1998,31,6.187337,6.48579,7.454129,90.0,90.0,90.0
8731,Br32Ga8Tl8,3.5558,14,11.53192,12.69916,13.07398,70.56714,90.0,90.0
8732,Cr4O22Te8,2.2867,14,7.755575,7.113524,9.911431,80.53937,90.0,90.0
8733,Ca2Co1O3,1.6243,8,3.260632,3.260632,11.07498,84.63263,84.63263,89.96796
8734,Cr2Mg2O8,2.4071,63,5.059414,5.059414,6.460057,90.0,90.0,113.283
8735,B16Mo4Y4,0.30670000000000003,55,3.642741,6.044089,11.68104,90.0,90.0,90.0
8736,F2H1Na1,6.8417,166,5.064741,5.064741,5.064741,40.4797,40.4797,40.4797
8737,B12Dy8O30,5.4362,15,6.277296,6.277296,18.96154,83.86212,83.86212,41.11664
8738,B4Ca2H16,5.2238,122,7.782744,7.782744,7.782744,135.2521,135.2521,65.13867
8739,Cl2K2O6,5.476,11,5.7170369999999995,4.753507,7.231579,70.8598,90.0,90.0
8740,Mo8O44P8,2.6838,62,6.388215,10.83989,12.91892,90.0,90.0,90.0
8741,Bi2Ca4O1,0.8198000000000001,139,8.976576,8.976576,8.976576,149.2821,149.2821,43.99624
8742,Ag2Cr1Pt1,0.008,216,4.4694,4.4694,4.4694,60.0,60.0,60.0
8743,Cr2Er2O8,0.6142000000000001,88,6.653047,6.653047,6.653047,135.6713,135.6713,64.48896
8744,B6O12Rb6,3.9303,167,8.150583,8.150583,8.150583,109.8958,109.8958,109.8958
8745,Al1Pd1Ta1,0.3161,216,4.305061,4.305061,4.305061,60.0,60.0,60.0
8746,Cd8F12O2,2.056,137,7.624001,7.624001,5.495715,90.0,90.0,90.0
8747,Ga4O8Zn2,2.8548,227,5.910015,5.910015,5.910015,60.0,60.0,60.0
8748,Fe2K6O6,1.796,12,6.708266,6.708266,6.615159,83.93888,83.93888,114.8845
8749,C8F16Te8,1.6583,4,12.19617,7.247948,7.5482700000000005,87.75471,90.0,90.0
8750,Fe1Ga2S4,0.7209,164,3.717659,3.717659,12.26356,90.00237,90.0,120.0
8751,O3Pb1Ti1,2.2037,99,3.968045,3.968045,4.20155,90.0,90.0,90.0
8752,Ge4N4O2,2.5141999999999998,36,5.541235,5.541235,5.174483,90.0,90.0,116.8803
8753,As3Ga3O12,3.1028000000000002,152,5.082,5.081949,11.60699,90.00551,89.9959,120.0111
8754,As8Cs8Se16,1.333,61,17.33429,6.8977640000000005,10.02714,90.0,90.0,90.0
8755,Al1Mn1Zr2,0.1531,216,4.613232,4.613232,4.613232,60.0,60.0,60.0
8756,Cl8Er2Na2,4.9806,13,7.720853,6.429111,6.808834,87.36777,90.0,90.0
8757,Cl7K3Mn2,3.0356,139,13.38851,13.38851,13.38851,158.0728,158.0728,31.20503
8758,Al2Se4Zn1,2.2802,82,6.775517,6.775517,6.775517,131.1561,131.1561,71.56519
8759,Hf1Ni1Sn1,0.05,216,4.500887,4.500887,4.500887,60.0,60.0,60.0
8760,Ca2F10Ti2,3.2643,15,5.707041,5.707041,7.833411,70.25224,70.25224,72.24427
8761,Cl4Na4O12,5.6551,198,6.674691,6.674691,6.674691,90.0,90.0,90.0
8762,Mo2O8Pb2,2.7749,88,7.319171,7.319171,7.319171,135.7182,135.7182,64.41632
8763,F8Li2Y2,7.844,88,6.570967,6.570967,6.570967,132.916,132.916,68.78612
8764,F3K1Ni1,3.6539,221,4.072523,4.072523,4.072523,90.0,90.0,90.0
8765,Al2H8Na2,1.8804,36,7.20761,7.20761,5.099414,90.0,90.0,151.6331
8766,Au1F3Sr1,1.1262,221,4.715953,4.715953,4.715953,90.0,90.0,90.0
8767,O8W2Zn2,3.0657,13,5.762539,4.681948,4.946604,89.05947,90.0,90.0
8768,Al2F8K2,6.9319,127,5.127861,5.127861,6.281629,90.0,90.0,90.0
8769,Ag2I2O8,1.0493,88,7.205316,7.205316,7.205316,135.0814,135.0814,65.40382
8770,Cr4Er4O12,2.4453,62,5.589847,5.265753,7.619797,90.0,90.0,90.0
8771,Na8O28Si12,4.3128,14,10.72861,7.293205,8.876958,75.16088,90.0,90.0
8772,Ga3O12P3,4.5248,152,4.989555,4.989555,11.21573,90.0,90.0,120.0
8773,Bi4I24Tl12,2.4839,14,13.97184,9.311239,13.81906,90.0,104.0781,90.0
8774,Cs1I3Sn1,0.5269,221,6.310866,6.310866,6.310866,90.0,90.0,90.0
8775,Rb12S16V4,1.8891,62,9.581947,9.542029,11.16517,90.0,90.0,90.0
8776,Cd2P4Sn2,0.1375,122,7.271689,7.271689,7.271689,131.2346,131.2346,71.44069
8777,Cd2Ge4O10,1.4768,2,5.415193,7.7421500000000005,5.622662,61.04734,73.06811,66.34008
8778,Cr4S12Sb4,0.9849,62,3.69556,8.972702,12.90781,90.0,90.0,90.0
8779,K12N44P24,4.0114,213,10.4878,10.4878,10.4878,90.0,90.0,90.0
8780,Ag2Er2S4,1.4385,109,7.115365,7.115365,7.115365,135.2156,135.2156,65.19545
8781,Li56N32Ta8,3.2811,205,9.872852,9.872852,9.872852,90.0,90.0,90.0
8782,Cr2O10Pb4,1.8863,12,7.644338,7.644338,7.267547,67.95915,67.95915,44.71485
8783,Ga2La2O6,3.4075,167,5.537186,5.537186,5.537186,60.72831,60.72831,60.72831
8784,Br10Cd2Cs6,3.0225,140,10.65962,10.65969,10.6608,125.3272,125.3268,80.99459
8785,Cs1Ho1S2,2.1398,166,8.379698,8.379698,8.379698,28.20554,28.20554,28.20554
8786,K4Mo6Se36,0.922,4,12.91515,10.71627,10.86138,63.22859,90.0,90.0
8787,Bi8Pb4S16,1.0069,62,4.086631,12.1689,14.790890000000001,90.0,90.0,90.0
8788,O6Sn2Zn2,1.1829,161,5.668207,5.668207,5.668207,56.03995,56.03995,56.03995
8789,N2Na2O6,2.9593,167,6.368655,6.368655,6.368655,47.61339,47.61339,47.61339
8790,Bi12O20Si1,2.4129,197,8.891349,8.891349,8.891349,109.4712,109.4712,109.4712