,full_formula,band_gap,spacegroup.number,structure.lattice.a,structure.lattice.b,structure.lattice.c,structure.lattice.alpha,structure.lattice.beta,structure.lattice.gamma
13238,Se4Tl3V1,1.7073,217,6.847548,6.847548,6.847548,109.4712,109.4712,109.4712
13239,H12Mg4Na4,3.3,62,5.366293,5.445013,7.638341,90.0,90.0,90.0
13240,La4O16V4,0.9875,14,6.9805209999999995,7.006095,8.115114,68.38341,90.0,90.0
13241,Cu6Dy6Sb8,0.2605,220,8.306889,8.306889,8.306889,109.4712,109.4712,109.4712
13242,Ba2Cr2S4,0.3265,59,4.352655,4.861454,9.596533,90.0,90.0,90.0
13243,Cr2Dy2O8,0.18150000000000002,74,5.990492,5.990492,5.990492,116.6322,106.2837,105.7443
13244,Ag2N2O6,2.3493,161,6.498357,6.498357,6.498357,47.62175,47.62175,47.62175
13245,F3Pd1Rb1,0.9599000000000001,221,4.416514,4.416514,4.416514,90.0,90.0,90.0
13246,F3Hg1Y1,3.3437,221,4.510265,4.510265,4.510265,90.0,90.0,90.0
13247,O16Se4V4,1.5441,14,10.00918,3.9537839999999997,8.189685,81.34593,90.0,90.0
13248,Na1Nb1O3,1.8348,221,3.988006,3.988006,3.9863809999999997,90.0,90.0,90.05959
13249,Cl12Hf2Te16,0.8771,2,7.319698,9.051376,17.18724,73.47705,77.70843,86.44014
13250,Bi8Pb4S16,1.0836000000000001,62,4.127249,11.86583,14.71128,90.0,90.0,90.0
13251,Mn6O16V4,1.9036,64,6.752059,6.752077,8.605029,90.00066,90.00035,124.0647
13252,Co1Sb1Ti1,0.8165,216,4.161596,4.161596,4.161596,60.0,60.0,60.0
13253,Ca4I8O24,1.2770000000000001,14,9.639324,7.304691,8.876715,76.91811,90.0,90.0
13254,Cu4Na4O4,1.5594999999999999,139,6.732385,6.732385,6.732385,97.06861,97.06861,138.928
13255,As4Rb4Si2,0.9525,72,8.565753,8.565753,8.565753,135.5308,128.8246,70.08865
13256,Ag4K4O4,1.504,139,7.641658,7.641658,7.641658,97.48213,97.48213,137.6945
13257,F3K1Si1,0.8506,221,4.339738,4.339738,4.339738,90.0,90.0,90.0
13258,F3Li1Mn1,2.6929,221,3.68806,3.68806,3.68806,90.0,90.0,90.0
13259,Er4F20K8,5.7778,36,8.599081,9.408576,9.21522,90.0,90.0,90.0
13260,Cd1Ge1O3,0.1272,221,3.781827,3.781827,3.781827,90.0,90.0,90.0
13261,Ag4F12K4,0.7561,62,6.203762,6.496429,8.438859,90.0,90.0,90.0
13262,O22Pr4Te8,3.2912,15,6.9429289999999995,6.9429289999999995,16.77304,76.74498,76.74498,45.18864
13263,Cl4N20S16,1.9766,62,5.14509,8.012933,18.66378,90.0,90.0,90.0
13264,Na2O6Sb2,2.6894,148,6.232281,6.232281,6.232281,51.18005,51.18005,51.18005
13265,Au4F16Li4,2.6031,13,6.575938,4.973748,10.13863,87.05242,90.0,90.0
13266,Fe2K2S4,0.1066,15,6.74918,6.74918,5.989326,73.59724,73.59724,108.661
13267,Li2N2O6,2.9816000000000003,167,5.8252,5.8252,5.8252,48.27362,48.27362,48.27362
13268,Ba2F8Mn2,3.2964,36,8.006552,8.006552,6.12324,90.0,90.0,149.0795
13269,C1F3Ga1,0.2091,221,3.937342,3.937342,3.937342,90.0,90.0,90.0
13270,Cl56Hg4Mo24,1.9382000000000001,201,13.12067,13.12067,13.12067,90.0,90.0,90.0
13271,F3Si1Tl1,0.6309,221,4.384485,4.384485,4.384485,90.0,90.0,90.0
13272,Cd1O6Pt3,0.5795,65,6.328047,6.328047,3.2095219999999998,90.0,90.0,109.3626
13273,Fe4La4S10,0.19640000000000002,36,8.672523,8.672523,11.5737,90.0,90.0,153.4956
13274,Be6O8Sr2,4.127,190,4.6238969999999995,4.6239,8.986576,90.0,90.0,120.0
13275,Nd4O14Zr4,3.317,227,7.651573,7.651573,7.651573,60.0,60.0,60.0
13276,C2Mn2O6,3.4587,167,5.983553,5.983553,5.983553,47.75887,47.75887,47.75887
13277,C8N8Se4,3.6422,64,5.784162,5.784162,15.03993,90.0,90.0,100.7201
13278,Cl18Cs6Cu6,1.232,178,7.375976,7.375976,18.50415,90.0,90.0,120.0
13279,Bi4Ca4Li4,0.5572,62,4.733847,7.8155339999999995,8.537376,90.0,90.0,90.0
13280,Ce2O8P2,5.0176,141,6.038218,6.038218,6.038218,105.9889,105.9889,116.6858
13281,Ba1F12Sb2,4.0842,1,5.921957,9.680714,5.806449,82.54858,58.97851,76.99889
13282,K1O2Y1,3.9736000000000002,166,6.588286,6.588286,6.588286,30.71489,30.71489,30.71489
13283,Cl16Ga4Rb4,4.4392,62,7.23577,9.509243,11.41004,90.0,90.0,90.0
13284,Ag1Bi1Te2,0.2412,166,7.558702,7.558702,7.558702,34.06491,34.06491,34.06491
13285,Hf1O3Sr1,3.7294,221,4.141983,4.141983,4.141983,90.0,90.0,90.0
13286,Al3O12P3,5.6335,154,5.033614,5.033655,11.13222,90.00018,89.99964,120.0014
13287,Li12O24W6,5.0569,148,9.046174,9.046174,9.046174,107.8642,107.8642,107.8642
13288,O8Si2Zr2,4.4639,141,5.622346,5.622346,5.622346,106.7655,106.7655,115.0298
13289,Fe2O26Te12,2.1135,148,8.831155,8.831078,8.831155,71.95015,71.95018,71.95049
13290,Hf1Mn1O3,0.2457,221,4.077499,4.077499,4.077499,90.0,90.0,90.0
13291,Bi2I2O2,1.5043,129,4.038666,4.038666,9.685466,90.0,90.0,90.0
13292,K16O24S16,3.7385,14,9.286696,10.20979,13.51863,68.28962,90.0,90.0
13293,Al3O12P3,5.4841,181,5.163189,5.163189,11.35219,90.0,90.0,120.0
13294,I6In2O18,3.4065,173,9.695166,9.695022999999999,5.411912,90.0,90.0,120.0006
13295,Mn6O18Sr6,0.3074,194,5.528153,5.528153,13.68231,90.0,90.0,120.0004
13296,I2Li2O6,3.6363,173,5.545983,5.545952,5.29312,90.0,90.0,120.0025
13297,Ba2Br1N1,1.1368,166,8.341515,8.341515,8.341515,29.0807,29.0807,29.0807
13298,O48Sc8W12,4.2137,60,9.802246,9.903753,13.63683,90.0,90.0,90.0
13299,Hg8Mo4O16,1.9781,14,9.394369,5.29639,11.1634,80.78932,90.0,90.0
13300,Na12S12Sb4,2.3956,198,8.708794,8.708794,8.708794,90.0,90.0,90.0
13301,O32Te12Ti4,3.0733,206,9.759834,9.759834,9.759834,109.4712,109.4712,109.4712
13302,Cd1F3Na1,2.9383,221,4.411653,4.411653,4.411653,90.0,90.0,90.0
13303,Cr3O8Rb1,1.7663000000000002,12,5.228616,5.228616,8.167303,85.07164,85.07164,63.97051
13304,Cl12O8Re4,1.9508,58,8.489908,8.510489,8.539483,90.0,90.0,90.0
13305,Si1Ti1V2,0.10070000000000001,216,4.264265,4.264265,4.264265,60.0,60.0,60.0
13306,O12Ti4Y4,2.3053,62,5.42233,5.772971,7.785696,90.0,90.0,90.0
13307,Ga4O8Zn2,2.8552,227,5.909803,5.909803,5.909803,60.0,60.0,60.0
13308,Ni6O16P4,3.2476,14,4.744249,5.889332,10.22801,89.17761,90.0,90.0
13309,Co4O16P4,1.3666,62,4.860264,5.961522,9.704653,90.0,90.0,90.0
13310,Ge2K6S6,2.3646000000000003,12,7.648292,7.648292,8.315824,75.06974,75.06974,109.7882
13311,S6Sn2Tl4,0.746,12,11.99405,11.99405,7.553354,86.82865,86.82865,18.93589
13312,Al2Cd1S4,2.7879,82,6.483476,6.483476,6.483476,128.5706,128.5706,75.70253
13313,Fe20Nd12O48,1.7410999999999999,230,11.10021,11.10021,11.10021,109.4712,109.4712,109.4712
13314,Na4O14Ti6,3.4241,11,3.876146,8.734463,9.294975,78.22137,90.0,90.0
13315,Cd2S8Sc4,1.2755,227,7.711633,7.711633,7.711633,60.0,60.0,60.0
13316,F2H1Li1,8.0277,166,4.778602,4.778602,4.778602,37.05075,37.05075,37.05075
13317,Ge6O24Sb8,3.2317,220,9.236002,9.236002,9.236002,109.4712,109.4712,109.4712
13318,Ba2H18Re2,0.7029000000000001,11,9.981756,3.655359,5.237358,88.1677,90.0,90.0
13319,O6Sr2Zr2,3.5700000000000003,140,5.904644,5.904644,5.836542,119.6202,119.6202,91.31249
13320,K12O36Sb12,1.7889,201,9.74636,9.74636,9.74636,90.0,90.0,90.0
13321,Br4F20Sn12,3.1942,14,12.86853,4.522504,15.45971,87.55001,90.0,90.0
13322,O14Sr2V6,2.0469,59,5.370929,5.509317,10.61003,90.0,90.0,90.0
13323,Cs2I6Te1,1.4093,225,8.558146,8.558146,8.558146,60.0,60.0,60.0
13324,B2H12N2,5.946,36,4.754651,4.754651,6.539494,90.0,90.0,101.7973
13325,Ga4O8Zn2,2.8548,227,5.910023,5.910023,5.910023,60.0,60.0,60.0
13326,Li2O13Ti6,3.2951,12,8.060231,8.060231,9.289528,81.23991,81.23991,27.66909
13327,O36Se12Tl8,2.1722,14,12.27257,4.618909,18.45335,83.94702,90.0,90.0
13328,Co2O6Ti2,3.1125,148,5.560387,5.560387,5.560387,55.23201,55.23201,55.23201
13329,F3K1Sr1,3.392,221,4.666664,4.666664,4.666664,90.0,90.0,90.0
13330,Br2Cs2F2,2.4977,139,10.49917,10.49917,10.49917,155.7536,155.7536,34.55566
13331,B4Co12O20,0.6284000000000001,55,3.066903,9.329816,12.37919,90.0,90.0,90.0
13332,Be1O4S1,6.9254999999999995,82,4.761044,4.761044,4.761044,122.4846,122.4846,85.74789
13333,Al4Mg2O8,5.1114,227,5.777222,5.777222,5.777222,60.0,60.0,60.0
13334,P24Pr8Si8,0.275,33,5.721635,5.886297,25.44876,89.98564,89.99895,89.98247
13335,Al2H2O4,5.8994,58,2.864734,4.187728,4.735457,90.0,90.0,90.0
13336,Er4O14Sn4,2.173,227,7.451126,7.451126,7.451126,60.0,60.0,60.0
13337,F16O4Os4,1.3988,14,13.15306,5.679848,5.741073,62.74212,90.0,90.0
13338,P2S6V2,0.8461000000000001,12,6.033797,6.033797,7.191897,81.99033,81.99033,120.0096
13339,Ba8Cl28Sc4,4.1613,14,13.52019,7.155023,12.84143,79.98327,90.0,90.0
13340,Eu2O6Ti2,0.7437,140,5.618822,5.618822,5.618822,120.1412,120.1412,89.75553
13341,As1In1K2,0.38880000000000003,225,5.688214,5.688214,5.688214,60.0,60.0,60.0
13342,Co5O15Sr6,0.8230000000000001,155,6.924225,6.924225,6.924225,87.92198,87.92198,87.92198
13343,Ca10F44Zr6,5.3231,18,7.49313,10.10548,10.14085,90.0,90.0,90.0
13344,B12H12Rb2,5.467,202,7.764511,7.764511,7.764511,60.0,60.0,60.0
13345,Li1Te2Ti1,0.8629,164,4.133417,4.133503,6.829984,90.00202,90.0,119.9993
13346,Cl3Cs1Ge1,2.199,160,5.530074,5.530074,5.530074,89.83986,89.83986,89.83986
13347,Ca4Li4Sb4,0.6278,62,4.6535139999999995,7.676889,8.345327,90.0,90.0,90.0
13348,Al1H6K3,1.8437999999999999,139,6.15013,6.15013,6.15013,123.772,123.772,83.58211
13349,C2Ca2O6,4.9932,167,6.476787,6.476787,6.476787,45.80988,45.80988,45.80988
13350,O3Pb1Ti1,2.1729,99,3.984675,3.984675,4.11354,90.0,90.0,90.0
13351,Cu4Er4S8,1.9183,19,3.9351469999999997,6.275206,13.34921,90.0,90.0,90.0
13352,F8O4Se4,4.1516,29,5.815804,6.395074,7.794183,90.0,90.0,90.0
13353,As32Ba32Ti8,1.114,218,13.63512,13.63512,13.63512,90.0,90.0,90.0
13354,Al3O12P3,5.6261,152,5.0415,5.041526,11.14888,89.9995,90.00063,120.0018
13355,K8S32Sn8,1.5375,2,9.650175,10.73451,16.56319,89.63875,90.08709,90.03313
13356,Ge2Mn4O8,0.8331000000000001,55,3.008864,5.338771,9.409178,90.0,90.0,90.0
13357,Ca1O6V2,2.8445,12,5.46986,5.46986,7.194508,76.87869,76.87869,39.41854
13358,Mn2Rb2Sb2,0.21030000000000001,129,4.880183,4.880183,8.592387,90.0,90.0,90.0
13359,Ge4P12Rb20,0.6925,62,5.618752,14.18216,15.543050000000001,90.0,90.0,90.0
13360,O28Se8U4,3.2288,2,9.647325,12.2376,6.863318,92.68612,93.47247,109.0724
13361,N6P2Zn4,3.2646,36,5.378751,5.378751,4.906633,90.0,90.0,119.4783
13362,As4Co4S4,1.0834,29,5.60166,5.606232,5.596214,90.0,90.0,90.0
13363,B8Hg2O14,1.7894,31,4.242629,4.4481,10.83353,90.0,90.0,90.0
13364,Br16In4Na4,2.8285,19,6.872489,10.71959,11.46529,90.0,90.0,90.0
13365,Ca1O3Ti1,2.3647,221,3.921092,3.921092,3.921092,90.0,90.0,90.0
13366,Cl6Ni2Rb2,2.7676,194,7.08132,7.08132,6.004921,90.0,90.0,120.0063
13367,Bi2Fe2O6,1.2318,161,5.511359,5.511359,5.511359,60.18359,60.18359,60.18359
13368,B12H12Tl2,4.5309,202,7.671314,7.671314,7.671314,60.0,60.0,60.0
13369,Cd2Er4S8,1.1836,227,7.932404,7.932404,7.932404,60.0,60.0,60.0
13370,N2Na1Ta1,1.4404,166,5.986636,5.986636,5.986636,30.54058,30.54058,30.54058
13371,Ba2S4Zr1,0.606,139,8.698102,8.698102,8.698102,146.5237,146.5237,48.06957
13372,Fe2Sb1Y1,0.131,225,4.51195,4.51195,4.51195,60.0,60.0,60.0
13373,C2Ca2O6,5.005,167,6.439167,6.439167,6.439167,46.17953,46.17953,46.17953
13374,Mo2O10P2,1.653,85,6.291253,6.291253,4.500049,90.0,90.0,90.0
13375,B16Ho4Mo4,0.3231,55,3.627478,6.02318,11.6386,90.0,90.0,90.0
13376,B4Cd4O10,2.5893,1,6.446769,10.0631,3.510697,91.32391,91.40493,105.7405
13377,O6Sr2Ti2,2.307,140,5.618456,5.614631,5.618456,60.02252,59.95496,60.02252
13378,B4F36Sn12,4.3667,14,7.74226,11.14689,10.55056,82.98754,90.0,90.0
13379,Ba1F6Si1,7.3808,166,4.85057,4.85057,4.85057,98.20994,98.20994,98.20994
13380,Bi8Ge6O24,3.4878,220,9.259139,9.259139,9.259139,109.4712,109.4712,109.4712
13381,O6Sr2Ti2,2.4101,140,5.5971589999999996,5.5971589999999996,5.618684,119.8733,119.8733,90.00008
13382,Bi4Cu4S8,0.7335,62,3.95601,6.274602,14.51413,90.0,90.0,90.0
13383,Br6O2Pa2,1.7522000000000002,12,9.373796,9.373796,10.09361,64.6666,64.6666,24.89145
13384,Al2O8P2,5.5141,20,5.062507,5.062507,7.081573,90.0,90.0,89.86355
13385,Na2O16Sb10,2.6962,2,9.861164,7.400273,7.562955,86.99248,75.25238,73.69337
13386,Ru4Sb4Te4,0.626,14,6.599635,6.6720939999999995,6.73725,65.7841,90.0,90.0
13387,O8Si2Zr2,4.4624,141,5.621949,5.621949,5.621949,106.7617,106.7617,115.0378
13388,Ag20Cs4Te12,0.36860000000000004,136,14.87728,14.87728,4.6717379999999995,90.0,90.0,90.0
13389,As1Ru1Ta1,0.4242,216,4.226096,4.226096,4.226096,60.0,60.0,60.0
13390,Ba6O18Ti6,2.1853,194,5.820734,5.820719,14.20562,90.0,90.0,120.0001
13391,Nb4Pd6Se16,0.6581,55,3.616036,11.04434,15.54668,90.0,90.0,90.0
13392,Er8Eu4Se16,1.2046000000000001,62,4.109534,12.52798,14.87912,90.0,90.0,90.0
13393,Cu1Na1O2,0.794,12,3.567393,3.567393,6.300289,59.94765,59.94765,45.68989
13394,As2Dy2O8,3.6353,141,5.9752019999999995,5.9752019999999995,5.9752019999999995,106.4071,106.4071,115.7904
13395,F3Ga1N1,1.4621,221,3.8727300000000002,3.8727300000000002,3.8727300000000002,90.0,90.0,90.0
13396,B1O4P1,7.2535,82,4.59924,4.59924,4.59924,122.3321,122.3321,86.00608
13397,Ba2F8Zn2,5.7228,36,7.618373,7.618373,5.882524,90.0,90.0,147.8365
13398,O12W1Y6,3.0939,148,6.50257,6.50257,6.50257,98.62871,98.62871,98.62871
13399,Be1F3Ga1,3.3963,221,3.74466,3.74466,3.74466,90.0,90.0,90.0
13400,Al1Cr2Sc1,0.0613,216,4.347806,4.347806,4.347806,60.0,60.0,60.0
13401,Hg6O20Se6,1.8964,4,5.444053,8.706308,11.40802,71.91425,90.00188,89.99919
13402,Mg2O8W2,3.3537,13,5.757544,4.749534,5.000805,89.08102,90.0,90.0
13403,B2Li6N4,3.4443,136,4.676403,4.676403,5.24968,90.0,90.0,90.0
13404,Br4Hg8N4,0.7037,194,6.7854849999999995,6.785211,11.49195,90.0,90.0,120.0013
13405,Cr4Hg2O8,1.2064,227,6.2558679999999995,6.2558679999999995,6.2558679999999995,60.0,60.0,60.0
13406,Ba1O3Ti1,2.14,221,4.058327,4.058327,4.058327,89.99736,89.99736,89.99736
13407,O3Sr1Ti1,2.2897,221,3.9728779999999997,3.9728779999999997,3.9728779999999997,90.0,90.0,90.0
13408,O3Pb1Ti1,2.1911,99,3.973982,3.973982,4.18155,90.0,90.0,90.0
13409,Cl24Re4S2,1.4405000000000001,11,11.46992,8.747497,9.196773,84.84477,90.0,90.0
13410,Na1O3Ta1,2.5034,221,3.995549,3.995549,3.995549,90.0,90.0,90.0
13411,B6O13Zn4,4.041,217,6.464076,6.464076,6.464076,109.4712,109.4712,109.4712
13412,Al2La2O6,3.2148,167,5.416764,5.41499,5.416764,59.98916,60.0,59.98916
13413,Ba4O16S4,5.9456,62,5.562496,7.274142,9.017741,90.0,90.0,90.0
13414,F20Nb2Sb2,4.7257,2,10.01482,7.573443,5.780723,80.64371,73.86397,88.06981
13415,Ba4Nd8S16,1.778,62,4.1999,12.44503,14.97556,90.0,90.0,90.0
13416,Li2Ni1O2,3.2641999999999998,164,3.1320230000000002,3.1320230000000002,5.079034,89.99999,90.00003,120.0015
13417,Co2F8Li2,2.4888,14,4.734056,5.513192,5.61202,66.2319,90.0,90.0
13418,Ba2Ga8S14,2.5458,31,5.998399,6.304173,14.90639,90.0,90.0,90.0
13419,C1K2N2,3.2171,12,4.106645,4.106645,5.8511109999999995,76.54599,76.54599,89.28196
13420,Cr1F3K1,0.5552,123,4.350203,4.350203,4.036123,90.0,90.0,90.0
13421,As2Cu6S8,0.18710000000000002,31,6.194335,6.485583,7.462308,90.0,90.0,90.0
13422,P4Se12Sn4,1.3238,14,7.819062,7.031983,9.734209,88.71808,90.0,90.0
13423,H48Se8Si16,3.6874000000000002,96,8.367647,8.367647,15.4235,90.0,90.0,90.0
13424,C8N8Se8,2.2601,19,5.186199,6.623214,16.01396,90.0,90.0,90.0
13425,Cl1O3Tl1,4.3266,160,4.551817,4.551817,4.551817,85.71507,85.71507,85.71507
13426,Cd6Sb12Sr11,0.3244,12,16.81484,16.81484,12.73092,70.32743,70.32743,16.49878
13427,Dy12Ga20O48,3.4123,230,10.71923,10.71923,10.71923,109.4712,109.4712,109.4712
13428,La6O6Sb2,0.6887,12,7.360102,7.360102,12.57498,62.63538,62.63538,32.73081
13429,Na4Pt8Se12,1.0446,186,7.48017,7.48017,11.65971,90.0,90.0,119.9991
13430,Br6Cs2Ni2,2.2649,194,7.685179,7.685164,6.380647,90.0,90.0,120.0001
13431,B2Mg6N6,1.3737,194,3.565547,3.565623,16.16583,90.0,90.0,119.9993
13432,C8H24S8,3.6276,14,15.49971,5.416911,7.038615,72.70139,90.0,90.0
13433,B16Er4Mo4,0.33280000000000004,55,3.6187519999999997,6.012444,11.61708,90.0,90.0,90.0
13434,Cs8Ga4Se10,2.1207,2,8.176755,9.513607,11.47738,76.18109,85.46905,80.90321
13435,F3Pb1Rb1,3.0536,221,4.866034,4.866034,4.866034,90.0,90.0,90.0
13436,Cl10O8Re4,1.5851000000000002,2,11.65573,9.218052,5.901561,79.88582,81.47004,68.04021
13437,I12Ru2Te14,0.9308000000000001,2,11.96993,11.91053,10.58298,76.79122,56.44646,67.05926
13438,Be1F3Sb1,0.7587,221,4.497074,4.497074,4.497074,90.0,90.0,90.0
13439,Br3Cs1Ge1,1.312,160,5.723503,5.723503,5.723503,88.88205,88.88205,88.88205
13440,Ce2O8V2,2.3971999999999998,141,6.255596,6.255596,6.255596,106.0567,106.0567,116.5401
13441,Cu6P2S8,1.3551,31,6.101347,6.363752,7.312467,90.0,90.0,90.0
13442,Cr2La2O6,2.0638,167,5.554106,5.554106,5.554106,61.10827,61.10827,61.10827
13443,B16C16Mg8,1.0198,64,7.225003,7.225003,7.465086,90.0,90.0,98.19512
13444,Br6Rb2Ti2,1.5062,194,7.647482,7.647556,6.829566,90.0,90.0,119.9997
13445,O16Sb8Zn4,2.5922,135,8.548529,8.548529,6.022326,90.0,90.0,90.0
13446,Cu1Fe1O2,0.8351000000000001,166,6.037768,6.037768,6.037768,29.45313,29.45313,29.45313
13447,Li8O6Sn1,3.436,148,6.108176,6.108176,6.108176,54.08027,54.08027,54.08027
13448,C2Ca2O6,4.9921,167,6.46637,6.46637,6.46637,45.877,45.877,45.877
13449,F14Sn2Y2,4.1848,4,5.821372,6.08429,8.319763,76.73059,90.0,90.0
13450,Ag4O12Te4,1.5179,11,7.5284379999999995,5.510667,7.082543,78.92772,90.0,90.0
13451,Cu2F12Sr4,2.8251,64,4.159178,4.159095,16.44775,89.99949,89.99888,88.4497
13452,C12N18Pr2,3.4796,63,7.162105,7.162105,10.57939,90.0,90.0,113.3145
13453,O40S8Sn16,3.4614000000000003,114,11.38482,11.38482,9.083832,90.0,90.0,90.0
13454,Cu4O14V4,1.3167,2,5.140568,5.905557,9.553194,99.4991,97.55049,97.36387
13455,Cl36N4W8,1.8603,14,17.35283,9.28612,9.217327,89.94527,90.0,90.0
13456,Fe2O12Ta4,2.2588,136,4.829985,4.829985,9.317908,90.0,90.0,90.0
13457,O12Rb4Ta4,3.7157999999999998,12,6.513866,6.513866,8.288017,86.42197,86.42197,82.99931
13458,Ag1Cu1O2,0.2722,12,3.551821,3.551821,6.010867,67.75165,67.75165,46.49698
13459,Be4F16Tl8,4.4323,62,5.939512,7.790719,10.62757,90.0,90.0,90.0
13460,Co1Na1O2,1.5491000000000001,166,5.621052,5.621052,5.621052,31.34462,31.34462,31.34462
13461,Be1F3W1,0.2666,221,4.261651,4.261651,4.261651,90.0,90.0,90.0
13462,Cs8O8Pb4,1.8327,2,8.317187,7.98954,11.37889,67.93394,75.30416,61.31234
13463,Br18Rb6V6,2.2653,165,13.11194,13.11196,6.600222,89.99979,90.0,119.9999
13464,Cu16Ge2S12,0.7685000000000001,31,6.990701,7.080524,9.854315,90.0,90.0,90.0
13465,H12Mg4Na4,3.4027,62,5.35789,5.435976,7.641156,90.0,90.0,90.0
13466,Al4Cl16Ti2,3.1551,15,8.382698,8.382698,11.97368,86.37777,86.37777,59.06553
13467,La2Ni1O4,0.1758,139,3.92519,3.92519,6.944023,106.4168,106.4168,90.0015
13468,Eu1O3Ti1,0.7174,221,3.965871,3.965871,3.965871,90.0,90.0,90.0
13469,O3Si1Ti1,1.3023,221,3.583527,3.583527,3.583527,90.0,90.0,90.0
13470,Ag16S32Sn12,0.4142,213,11.01633,11.01633,11.01633,90.0,90.0,90.0
13471,Eu4Hf4O14,0.1376,227,7.551425,7.551425,7.551425,60.0,60.0,60.0
13472,O4S8Sb8,1.2332,2,11.06941,8.417750999999999,6.075657,66.96945,75.53704,68.74665
13473,Ru1Si1Y2,0.2049,216,4.772463,4.772463,4.772463,60.0,60.0,60.0
13474,C1Li4O4,4.9262,5,5.160435,5.160435,4.791963,57.19418,57.19418,53.82074
13475,B16Bi4O30,4.4356,4,22.75179,4.396708,6.574163,76.34465,89.99999,90.0
13476,Ag1Mg1P1,0.3406,216,4.357093,4.357093,4.357093,60.0,60.0,60.0
13477,Cl6Pt1Rb2,2.086,225,7.23227,7.23227,7.23227,60.0,60.0,60.0
13478,C1O4Rb4,1.2845,5,6.720901,6.720901,6.848575,60.71529,60.71529,46.76456
13479,Li4P2Sr1,0.9659000000000001,166,8.241801,8.241801,8.241801,30.16526,30.16526,30.16526
13480,Ge2Mg2O6,2.4267,63,4.9480129999999996,4.9480129999999996,7.028785,90.0,90.0,146.4978
13481,F16Na6Ta2,5.1095,15,6.477664,6.477664,11.37285,62.06968,62.06968,49.8173
13482,Hf8Rb16S32,2.1615,61,6.782885,9.888033,24.44536,90.0,90.0,90.0
13483,As2Cs2F8,4.6016,4,4.925663,6.74672,8.722224,67.73978,90.0,90.0
13484,Cl6K2Pt1,1.9778,225,7.076299,7.076299,7.076299,60.0,60.0,60.0
13485,As4Co4S4,1.0839,29,5.599276,5.605873,5.593773,90.0,90.0,90.0
13486,Mo2O8Zn2,2.2127,13,5.7780629999999995,4.671271,4.913904,89.80583,90.0,90.0
13487,F6V1Zr1,2.1118,225,5.858504,5.858504,5.858504,60.0,60.0,60.0
13488,Cr1K3O8,1.8050000000000002,121,6.203671,6.203671,6.203671,113.4231,113.4231,101.8274
13489,Mn2O8W2,2.2029,13,5.86797,4.886956,5.072829,88.61349,90.0,90.0
13490,Al2O8P2,5.3305,186,5.331951,5.331951,8.715227,90.0,90.0,120.0001
13491,Au2Cl6Cs2,0.9149,139,7.794409,7.794409,7.794409,121.578,121.578,87.28794
13492,Be4H8O8,5.717,19,4.51377,4.654153,7.025298,90.0,90.0,90.0
13493,Fe2O6Ti2,1.9835,148,5.58173,5.58173,5.58173,55.65678,55.65678,55.65678
13494,Fe2O6Ti2,1.9812,148,5.579849,5.579849,5.579849,55.62731,55.62731,55.62731
13495,O16S4Zn4,4.4503,62,4.7703679999999995,6.70425,8.583732,90.0,90.0,90.0
13496,F20Lu12O8,5.7007,62,5.259827,5.512811,16.96318,90.0,90.0,90.0
13497,Ga1O3Y1,2.716,221,3.824887,3.824887,3.824887,90.0,90.0,90.0