,full_formula,band_gap,spacegroup.number,structure.lattice.a,structure.lattice.b,structure.lattice.c,structure.lattice.alpha,structure.lattice.beta,structure.lattice.gamma
6667,O16Si8,5.5411,15,7.2538,7.230411,7.241749,75.57098,75.4277,119.9499
6668,Pb1Te1,0.7966000000000001,225,4.63468,4.63468,4.63468,60.0,60.0,60.0
6669,O6Si3,5.7233,152,4.981638,4.982433,5.478608,90.00258,90.00233,119.9948
6670,Si4Sr8,0.3437,62,5.146069,8.125578,9.61647,90.0,90.0,90.0
6671,K2Te1,2.1408,225,5.821449,5.821449,5.821449,60.0,60.0,60.0
6672,O4Ti2,2.2659000000000002,136,4.673181,4.673181,3.022579,90.0,90.0,90.0
6673,Bi8O12,2.2634,14,8.307916,5.942498,7.607099,66.64296,90.0,90.0
6674,Al4O6,5.8491,167,5.181066,5.181066,5.181066,55.29446,55.29446,55.29446
6675,O2Zn2,1.8117,186,3.194553,3.194553,5.146756,90.0,90.0,119.996
6676,Te1Zn1,1.4794,216,4.34071,4.34071,4.34071,60.0,60.0,60.0
6677,O32Ru8,2.4723,218,9.109591,9.109591,9.109591,90.0,90.0,90.0
6678,Fe12S12,0.8149000000000001,40,6.367542,6.367542,11.886660000000001,90.0,90.0,121.3311
6679,Cd1Te1,0.7091000000000001,216,4.667968,4.667968,4.667968,60.0,60.0,60.0
6680,Cl2Co1,3.3412,166,6.42933,6.42933,6.42933,32.50732,32.50732,32.50732
6681,Mg2P8,0.6907,14,5.119205,5.191901,7.598553,81.36052,90.0,90.0
6682,F18La6,7.6952,165,7.299463,7.299457,7.4697189999999996,89.99941,90.00051,120.001
6683,O16Si8,5.5524000000000004,15,7.234018,7.234018,7.223512,75.58711,75.58711,119.9027
6684,S2Ti1,0.5388000000000001,164,3.4773389999999997,3.477334,6.238799,89.99987,90.00004,120.0
6685,O6Si3,5.5361,180,5.103277,5.103277,5.593596,90.0,90.0,120.0
6686,O20V8,2.2625,62,3.626649,10.14791,10.53858,89.99893,90.0,90.0
6687,N1Sc1,0.44970000000000004,225,3.242765,3.242765,3.242765,60.0,60.0,60.0
6688,Be2O2,7.4437,186,2.711484,2.711484,4.405201,90.0,90.0,119.9989
6689,O1Sr1,3.2756,225,3.6811819999999997,3.6811819999999997,3.6811819999999997,60.0,60.0,60.0
6690,C6N8,0.8706,227,4.796378,4.796378,4.796378,60.0,60.0,60.0
6691,Nb4O10,2.7687,15,6.927296,6.927296,5.616148,77.04127,77.04127,41.85714
6692,Er1N1,0.123,225,3.428035,3.428035,3.428035,60.0,60.0,60.0
6693,Cd3Te3,0.2136,152,4.587246,4.586881,10.47471,89.9934,89.99836,120.0001
6694,As24Sr32,0.5868,55,11.0473,12.28661,12.93603,90.0,90.0,90.0
6695,P8S10,2.4543,4,11.70771,6.923836,7.278234,67.28962,90.0,90.0
6696,Cr3Si6,0.9303,180,4.419954,4.419954,6.366677,90.0,90.0,120.0
6697,O1Zn1,1.6869,216,3.18014,3.18014,3.18014,60.0,60.0,60.0
6698,Br1K1,4.3284,225,4.736272,4.736272,4.736272,60.0,60.0,60.0
6699,Ho16O24,3.9469000000000003,206,9.187025,9.187025,9.187025,109.4712,109.4712,109.4712
6700,F8Ir2,0.8621000000000001,43,6.787889,5.738342,5.580702,73.68021,54.22486,52.09492
6701,Ge3O6,3.1712,152,5.096915,5.098884,5.769273,89.98362,90.00025,119.9906
6702,C2Sr1,1.6223,139,4.469173,4.469173,4.469173,125.2242,125.2242,81.16701
6703,Be2O2,7.4366,186,2.7115270000000002,2.711491,4.403331,90.0,90.0,120.0004
6704,O8Te4,2.7888,92,4.98343,4.98343,7.631741,90.0,90.0,90.0
6705,Ce1O2,2.4185,225,3.8850059999999997,3.8850059999999997,3.8850059999999997,60.0,60.0,60.0
6706,Cd3I6,2.3551,164,4.312478,4.312478,21.81286,90.00177,89.99823,120.0009
6707,O6Si3,5.537,180,5.102813,5.102813,5.594014,90.0,90.0,120.0
6708,Gd16O24,3.6151,206,9.42052,9.42052,9.42052,109.4712,109.4712,109.4712
6709,Ga2Te5,0.8877,87,6.693043,6.693043,6.693043,105.7251,105.7251,117.2553
6710,O8Zr4,3.4471,14,5.289642,5.213951,5.392585,80.37092,90.0,90.0
6711,Cl6Tb2,3.7981,63,6.868859,6.868859,8.587867,90.0,90.0,147.647
6712,Ba1F2,6.6177,225,4.438076,4.438076,4.438076,60.0,60.0,60.0
6713,Ga1P1,1.6437,216,3.883855,3.883855,3.883855,60.0,60.0,60.0
6714,Ba1S1,2.1523,225,4.566499,4.566499,4.566499,60.0,60.0,60.0
6715,Be1S1,3.1437,216,3.447258,3.447258,3.447258,60.0,60.0,60.0
6716,As16Mg4,0.8107000000000001,92,5.472328,5.472328,16.08971,90.0,90.0,90.0
6717,F18La6,5.5375,182,7.299718,7.299718,7.272894,90.0,90.0,120.0011
6718,Cd1F2,3.0496,225,3.871915,3.871915,3.871915,60.0,60.0,60.0
6719,Te1Zn1,1.4745,216,4.34209,4.34209,4.34209,60.0,60.0,60.0
6720,Se1Zn1,1.6995,216,4.010155,4.010155,4.010155,60.0,60.0,60.0
6721,Br4Ca2,4.4472000000000005,136,6.852032,6.852032,4.408336,90.0,90.0,90.0
6722,Cr3Si6,0.9302,180,4.420166,4.420166,6.365479,90.0,90.0,120.0
6723,F4Mn2,2.5693,136,4.974148,4.974148,3.349119,90.0,90.0,90.0
6724,Rb32Si32,1.3525,218,13.18299,13.18299,13.18299,90.0,90.0,90.0
6725,Se1Zn1,1.6982,216,4.010532,4.010532,4.010532,60.0,60.0,60.0
6726,O32Si16,2.5345,126,11.28019,11.28019,5.164941,90.0,90.0,90.0
6727,F6Ni2,1.2218,148,5.207671,5.207671,5.207671,55.98514,55.98514,55.98514
6728,F8Mn4,3.3463,111,5.279339,5.279339,5.260699,90.0,90.0,90.0
6729,B8Cl8,3.331,137,8.723633,8.723633,5.806767,90.0,90.0,90.0
6730,Br8Th2,3.0252,141,7.722925,7.722925,7.722925,106.84,106.84,114.8724
6731,C2Li2,3.306,71,4.071269,4.071269,4.071269,126.7317,106.9656,96.32306
6732,O4Si2,5.0041,136,4.233087,4.233087,2.693365,90.0,90.0,90.0
6733,Cd4I8,2.3696,164,4.310633,4.310607,28.91754,89.99889,90.0,120.0002
6734,Bi8S12,1.3692,62,4.025273,11.18712,11.66929,90.0,90.0,90.0
6735,Fe2Se2,0.5056,129,4.248475,4.248475,5.492258,90.0,90.0,90.0
6736,Fe4S8,2.017,205,5.521948,5.521948,5.521948,90.0,90.0,90.0
6737,F8Pb4,4.3697,62,3.950239,6.566656,7.798891,90.0,90.0,90.0
6738,Br4Se4,1.5176,41,4.460633,4.460633,15.08445,90.0,90.0,106.2481
6739,F4Si1,7.6934000000000005,217,4.797854,4.797854,4.797854,109.4712,109.4712,109.4712
6740,O6Si3,5.6912,154,5.001742,5.001712,5.495872,89.99889,90.00024,120.0011
6741,Li3N1,0.9845,191,3.65212,3.651938,3.888382,90.0,90.0,120.0016
6742,Ca1Te1,1.5517,225,4.522656,4.522656,4.522656,60.0,60.0,60.0
6743,Se1Yb1,1.4329,225,4.260337,4.260337,4.260337,60.0,60.0,60.0
6744,Ba6C120,0.1413,223,11.47137,11.47137,11.47137,90.0,90.0,90.0
6745,Mg24P16,1.6116000000000001,206,10.44664,10.44664,10.44664,109.4712,109.4712,109.4712
6746,C2F8,9.0662,15,4.893888,4.893888,8.662592,63.79191,63.79191,54.21223
6747,Pb1Te1,0.8105,225,4.646251,4.646251,4.646251,60.0,60.0,60.0
6748,K32Si32,1.2708,218,12.69188,12.69188,12.69188,90.0,90.0,90.0
6749,Ru4Te8,0.309,205,6.477967,6.477967,6.477967,90.0,90.0,90.0
6750,Ru2Sb4,0.1602,58,3.215182,6.001047,6.757102,90.0,90.0,90.0
6751,Ag2I2,2.0123,186,4.723742,4.723742,7.611039,90.0,90.0,119.9993
6752,Ga1P1,1.6437,216,3.883863,3.883863,3.883863,60.0,60.0,60.0
6753,Er12S18,1.4621,11,3.994767,10.12083,17.52869,81.3623,90.0,90.0
6754,F3La1,6.1899,225,4.181443,4.181443,4.181443,60.0,60.0,60.0
6755,C4Mg2,2.5559000000000003,136,3.9457839999999997,3.9457839999999997,4.997626,90.0,90.0,90.0
6756,O16Sb8,1.8934000000000002,33,4.908766,5.550861,11.93212,90.0,90.0,90.0
6757,Os4S8,0.43860000000000005,205,5.674136,5.674136,5.674136,90.0,90.0,90.0
6758,O6Si3,5.719,154,4.969181,4.969294,5.468412,90.00002,90.00004,120.0005
6759,Cr4O6,2.3732,167,5.450196,5.450196,5.450196,55.67133,55.67133,55.67133
6760,Ga4Se4,0.7884,187,3.812872,3.812872,16.2795,90.0,90.0,120.0103
6761,Ge4Te4,0.4757,62,4.236199,4.29289,12.09148,90.0,90.0,90.0
6762,Cd2Te2,0.7415,186,4.662593,4.662153,7.644895,90.0,90.0,120.0031
6763,Br6Pr2,2.8,176,8.061007,8.056142,4.44273,90.0,90.0,119.9468
6764,F1Na1,6.1288,225,3.314612,3.314612,3.314612,60.0,60.0,60.0
6765,Cd2S2,1.2593,186,4.190599,4.190599,6.8104,90.0,90.0,119.9942
6766,Cu3N1,0.5243,221,3.823285,3.823285,3.823285,90.0,90.0,90.0
6767,Mo4O12,1.8224,62,3.725721,3.9519789999999997,15.30102,90.0,90.0,90.0
6768,Mg2Te2,0.8313,194,4.231399,4.231399,6.877961,90.0,90.0,120.0009
6769,O10Ta4,0.4338,47,3.7131309999999997,6.547136,7.807809,90.0,90.0,90.0
6770,Li4O4,1.7253,194,3.3303760000000002,3.3303760000000002,7.835165,90.0,90.0,119.9979
6771,Pb4S4,0.41450000000000004,38,7.971515,7.971515,4.09286,90.0,90.0,91.30528
6772,Cl40Mo8,0.7675000000000001,62,6.604436,12.61079,18.51305,90.0,90.0,90.0
6773,O32Si16,5.6773,2,13.01029,5.125422,14.97448,89.47407,103.533,102.0314
6774,I1Na1,3.6168,225,4.590695,4.590695,4.590695,60.0,60.0,60.0
6775,Ge1I2,1.8006000000000002,187,4.151719,4.151719,8.088318,90.0,90.0,120.0136
6776,Cl32Pt8,0.3347,205,11.36509,11.36509,11.36509,90.0,90.0,90.0
6777,B16H40,6.6393,14,12.82585,8.151963,9.213264,85.15762,90.0,90.0
6778,Ge3O6,3.1579,152,5.115408,5.115182,5.775476,89.99388,90.00219,120.022
6779,S8Zn8,2.7053000000000003,156,3.79684,3.796848,24.85118,90.00005,90.0,119.9999
6780,Al12S18,3.0839,169,6.6161449999999995,6.6161449999999995,17.27421,90.0,90.0,120.0
6781,N1Y1,2.0748,216,3.744582,3.744582,3.744582,60.0,60.0,60.0
6782,Ga1P1,1.6437,216,3.8838369999999998,3.8838369999999998,3.8838369999999998,60.0,60.0,60.0
6783,Ga8Se8,0.9481,186,3.8042629999999997,3.804167,33.22158,90.0,90.0,120.0008
6784,Se1Zn1,1.6987,216,4.010376,4.010376,4.010376,60.0,60.0,60.0
6785,In16O24,1.1155,206,8.868913,8.868913,8.868913,109.4712,109.4712,109.4712
6786,F4Mn2,2.5827,136,4.974616,4.974616,3.348717,90.0,90.0,90.0
6787,Cl4Pd2,1.6061,58,3.408717,4.144587,11.46193,90.0,90.0,90.0
6788,Cl4Zn2,4.6308,122,6.402611,6.402611,6.402611,127.696,127.696,77.11801
6789,F3Sc1,6.5705,221,4.123669,4.123669,4.123669,90.0,90.0,90.0
6790,Se2Ti1,0.0414,164,3.6195589999999997,3.6195589999999997,6.550025,90.00177,89.99823,119.9996
6791,Ru4Te8,0.3069,205,6.4779029999999995,6.4779029999999995,6.4779029999999995,90.0,90.0,90.0
6792,Al6H18,3.101,63,6.359166,6.359166,6.501016,90.0,90.0,118.9317
6793,H16N16,4.1507,53,3.831207,8.660891,8.983484,90.0,90.0,90.0
6794,O8Te4,2.8038,96,4.974862,4.974862,7.648248,90.0,90.0,90.0
6795,Cl1Cu1,1.2785,216,3.838311,3.838311,3.838311,60.0,60.0,60.0
6796,H1Rb1,2.9084000000000003,225,4.253951,4.253951,4.253951,60.0,60.0,60.0
6797,Ge3O6,3.1343,154,5.028296,5.028244,5.752763,89.99819,90.00025,120.0312
6798,Li3Sb1,0.6938000000000001,225,4.648612,4.648612,4.648612,60.0,60.0,60.0
6799,Cd2S2,1.2628,186,4.194179,4.193784,6.803121,90.0,90.0,120.0031
6800,Cl1K1,4.8085,221,3.836055,3.836055,3.836055,90.0,90.0,90.0
6801,Ho12S18,1.4639,11,4.013675,10.16154,17.59018,81.38936,90.0,90.0
6802,Pb1Te1,0.7988000000000001,225,4.636535,4.636535,4.636535,60.0,60.0,60.0
6803,Er4F12,7.6989,62,4.503494,6.252656,6.861912,90.0,90.0,90.0
6804,Gd16O24,3.6195,206,9.420152999999999,9.420152999999999,9.420152999999999,109.4712,109.4712,109.4712
6805,Se2V2,0.704,194,3.831658,3.831787,6.300788,90.0,90.0,119.9989
6806,Ce1O2,2.4185,225,3.8850059999999997,3.8850059999999997,3.8850059999999997,60.0,60.0,60.0
6807,O18Ti10,0.0718,2,5.749439,7.250129,8.618715,70.78046,74.97855,71.73284
6808,O18Ti10,1.2101,2,5.695473,7.252084,8.71668,71.10845,74.65986,72.40664
6809,Ga2Te5,0.8725,87,6.691957,6.691957,6.691957,105.7676,105.7676,117.1633
6810,Cd2Se2,0.6904,186,4.374375,4.373982,7.132297,90.0,90.0,120.003
6811,Br12Tc4,0.066,59,6.327689,6.977196,12.19136,90.0,90.0,90.0
6812,F18La6,7.6578,165,7.302362,7.302362,7.468095,89.99975,90.00025,120.001
6813,Mo2Se4,1.1802,194,3.333504,3.333504,14.04677,90.0,90.0,119.998
6814,Hg4I4,1.6402,139,5.171368,5.171368,11.80588,90.0,90.0,90.0
6815,Li3N1,0.9848,191,3.651236,3.651053,3.888612,90.0,90.0,120.0017
6816,H12N4,4.3281,198,5.121569,5.121569,5.121569,90.0,90.0,90.0
6817,F20U4,2.949,122,8.653408,8.653408,8.653408,95.47342,95.47342,144.021
6818,Mn4O8,1.0412,87,7.167144,7.167144,7.167144,92.39305,92.39305,156.4184
6819,As16S16,2.3786,14,18.77831,7.630856,9.715636,82.61456,90.0,90.0
6820,O2Pb2,1.635,129,4.059727,4.059727,5.423153,90.0,90.0,90.0
6821,Os16Si24,0.8916000000000001,60,5.612465,9.011624,11.20958,90.0,90.0,90.0
6822,Cd1Te1,0.7058,216,4.669683,4.669683,4.669683,60.0,60.0,60.0
6823,Ce6F18,4.7555,165,7.244182,7.244182,7.399777,90.00011,89.99989,120.0122
6824,Au4Cl8,0.9695,2,7.2758140000000004,7.248976,7.157088,86.52824,70.13462,87.77752
6825,Cu3N1,0.5237,221,3.823041,3.823041,3.823041,90.0,90.0,90.0
6826,La2O3,1.6,189,6.390977,6.390977,3.327793,89.9884,90.0116,120.0245
6827,Li6Sb2,0.4811,194,4.688969,4.688903,8.3589,90.0,90.0,120.0005
6828,Mg3Sb2,0.21380000000000002,164,4.599743,4.599111,7.281939,89.99607,90.0,120.0045
6829,N8Si6,4.2461,176,7.66132,7.660837,2.924971,90.0,90.0,120.0024
6830,Ce1O2,2.4183,225,3.885098,3.885098,3.885098,60.0,60.0,60.0
6831,F6Mo2,2.4944,167,5.796343,5.796343,5.796343,54.96393,54.96393,54.96393
6832,P8Ru2,0.877,14,4.709458,4.72672,7.162586,80.60103,90.0,90.0
6833,Be2O2,7.4546,186,2.710679,2.7106120000000002,4.402959,90.0,90.0,120.0008
6834,P4Ru2,0.46280000000000004,58,2.896246,5.128101,5.938992,90.0,90.0,90.0
6835,O24Y16,4.0627,206,9.266268,9.266268,9.266268,109.4712,109.4712,109.4712
6836,C8Ca4,1.7537,224,6.080199,6.080199,6.080199,90.0,90.0,90.0
6837,Ga1P1,1.6437,216,3.883829,3.883829,3.883829,60.0,60.0,60.0
6838,Ba1Te1,1.5922,225,5.012264,5.012264,5.012264,60.0,60.0,60.0
6839,Mn4S8,1.2343,205,5.647775,5.647775,5.647775,90.0,90.0,90.0
6840,Br1Cs1,4.2492,221,4.390072,4.390072,4.390072,90.0,90.0,90.0
6841,Ga2N2,1.9258000000000002,186,3.205746,3.20558,5.212989,90.0,90.0,120.0017
6842,Cd8P16,1.4453,96,5.350558,5.350558,20.01291,90.0,90.0,90.0
6843,Ce1O2,2.4185,225,3.8850059999999997,3.8850059999999997,3.8850059999999997,60.0,60.0,60.0
6844,B2N2,4.5069,194,2.512509,2.512509,7.879443,90.0,90.0,120.0067
6845,Cl1K1,4.798,221,3.839271,3.839271,3.839271,90.0,90.0,90.0
6846,Ce6F18,4.7576,165,7.250771,7.250771,7.383494,89.98638,90.01362,119.9886
6847,As16S16,2.4063,14,18.58768,7.747238,9.878488,83.27618,90.0,90.0
6848,Cd1S1,0.4117,225,3.875639,3.875639,3.875639,60.0,60.0,60.0
6849,Cd4P8,1.4741,33,5.464604,5.243191,10.00848,90.0,90.0,90.0
6850,Fe4P16,1.0258,15,5.833288,5.833288,11.17193,89.37774,89.37774,128.2314
6851,O24Y16,4.0554,206,9.267612,9.267612,9.267612,109.4712,109.4712,109.4712
6852,As8Rh4,0.2142,14,6.160705,6.134251,6.22077,65.18821,90.0,90.0
6853,H8Sr4,3.1038,62,3.842847,6.322718,7.279725,90.0,90.0,90.0
6854,Pb1Te1,0.7988000000000001,225,4.6365359999999995,4.6365359999999995,4.6365359999999995,60.0,60.0,60.0
6855,B2I6,2.6708,176,7.379463,7.37835,8.729928,90.0,90.0,120.0004
6856,In16Se12,0.14150000000000001,58,4.160232,12.48381,15.47398,90.0,90.0,90.0
6857,F4Mg2,6.8414,136,4.688054,4.688054,3.093632,90.0,90.0,90.0
6858,H8Mg4,2.6629,29,4.78798,4.785817,4.787997,90.0,90.0,90.0
6859,Cd1S1,1.1888,216,4.181881,4.181881,4.181881,60.0,60.0,60.0
6860,Fe2Te4,0.6921,58,3.9701519999999997,5.325502,6.39572,90.0,90.0,90.0
6861,C2S4,3.4635,64,4.652985,4.652985,10.21331,90.0,90.0,100.4171
6862,Ce2O3,2.7885,12,3.9213649999999998,3.9213649999999998,6.150808,90.14336,89.85664,119.5645
6863,Al4O6,5.8489,167,5.180866,5.180866,5.180866,55.29742,55.29742,55.29742
6864,Al16Te24,1.8551000000000002,14,13.12411,7.28208,16.97087,64.57666,90.0,90.0
6865,N3Na1,0.6108,12,4.657394,4.657394,6.061684,54.84732,54.84732,79.89161
6866,Si38Te16,0.8683000000000001,161,10.55469,10.55469,10.55469,89.61491,89.61491,89.61491
6867,K2S1,2.3207,225,5.278926,5.278926,5.278926,60.0,60.0,60.0
6868,O6Si3,5.7125,154,4.976135,4.976214,5.480955,89.99995,89.99998,120.0004
6869,F6Ga2,4.9226,167,5.272718,5.272536,5.272545,57.42915,57.42858,57.4285
6870,Hf1O2,3.8049,225,3.5884229999999997,3.5884229999999997,3.5884229999999997,60.0,60.0,60.0
6871,Co6S8,0.4234,227,6.829169,6.829169,6.829169,60.0,60.0,60.0
6872,Eu1S1,0.7167,225,4.2452,4.2452,4.2452,60.0,60.0,60.0
6873,Eu1Se1,0.3759,221,3.775416,3.775416,3.775416,90.0,90.0,90.0
6874,Ca1F2,7.1318,225,3.8970380000000002,3.8970380000000002,3.8970380000000002,60.0,60.0,60.0
6875,Dy16O24,3.9311,206,9.242329,9.242329,9.242329,109.4712,109.4712,109.4712
6876,S20Zn20,2.6877,156,3.79732,3.79727,62.10666,90.00004,90.0,120.0004
6877,F1Na1,6.135,225,3.313317,3.313317,3.313317,60.0,60.0,60.0
6878,C2Na2,3.4732,71,4.6793119999999995,4.6793119999999995,4.6793119999999995,126.8863,109.4421,93.8369
6879,Fe8Si16,0.9831000000000001,64,6.261423,6.261423,7.797732,90.0,90.0,103.9965
6880,Ag4F8,1.0271,61,5.178472,5.57513,6.020723,90.0,90.0,90.0
6881,S4W2,1.4082,194,3.201847,3.201872,13.5863,90.0,90.0,119.9997
6882,Cl2Mn1,3.8824,166,6.406426,6.406426,6.406426,34.0646,34.0646,34.0646
6883,Cl16Ge4,4.0077,14,6.892407,10.35792,10.44856,77.02627,90.0,90.0
6884,O9Sc6,3.773,12,6.964151,6.964151,8.167899,79.75291,79.75291,27.10585
6885,O2Zn2,1.8237,186,3.198113,3.198113,5.128981,90.0,90.0,119.9964
6886,O10Ti6,0.22210000000000002,12,5.317533,5.317533,9.666022,88.39938,88.39938,42.82673
6887,O2Zn2,1.8037,186,3.187353,3.187245,5.165601,90.0,90.0,120.0011
6888,Br1K1,3.8959,221,4.035092,4.035092,4.035092,90.0,90.0,90.0
6889,Er16O24,3.9588,206,9.140896,9.140896,9.140896,109.4712,109.4712,109.4712
6890,Al4C3,1.3221,166,8.594573,8.594573,8.594573,22.49983,22.49983,22.49983
6891,Te3Zn3,1.4801,144,4.339605,4.339605,10.63368,90.0,90.0,120.0
6892,S12Tb8,0.7359,62,3.911782,7.334496,15.26155,90.0,90.0,90.0
6893,S8Zn8,2.6988000000000003,156,3.795717,3.795726,24.81158,89.99979,90.0,119.9999
6894,O12Rb4,0.8731,14,6.144441,6.5995,7.739191,76.89208,90.0,90.0
6895,S6Zr2,1.0903,11,3.660506,5.184105,9.436296,95.99254,90.0,90.0
6896,Cr4O6,2.3731,167,5.453947,5.453947,5.453947,55.6138,55.6138,55.6138
6897,Li3N1,0.9847,191,3.652835,3.652835,3.887804,90.0,90.0,119.9975
6898,Cl1K1,5.0439,225,4.513962,4.513962,4.513962,60.0,60.0,60.0
6899,Al10F30,7.4218,127,11.62922,11.62922,3.640022,90.0,90.0,90.0
6900,H4Mg2,3.7476000000000003,136,4.485306,4.485306,2.9958869999999997,90.0,90.0,90.0
6901,H1Li1,2.9617,225,2.825757,2.825757,2.825757,60.0,60.0,60.0
6902,B2N2,5.2211,186,2.555053,2.555036,4.225547,90.0,90.0,120.0002
6903,Cr4F10,1.2291,15,5.547766,5.547766,7.2713149999999995,68.95842,68.95842,88.15929
6904,Pt2S2,0.8985000000000001,131,3.532239,3.532239,6.115047,90.0,90.0,90.0
6905,Se2Sn2,0.366,63,6.428343,6.428343,4.346152,90.0,90.0,140.7841
6906,Ac2Br6,4.1084,176,8.247654,8.247618,4.725054,90.0,90.0,120.0
6907,Mn1S1,0.8193,225,3.7359970000000002,3.7359970000000002,3.7359970000000002,60.0,60.0,60.0
6908,Br1K1,3.8959,221,4.035091,4.035091,4.035091,90.0,90.0,90.0
6909,N1Y1,0.1472,225,3.478986,3.478986,3.478986,60.0,60.0,60.0
6910,Li3N1,0.9777,191,3.650182,3.650182,3.894577,90.0,90.0,119.9958
6911,I40Ta8,1.2908,62,7.126078,15.07174,20.94647,90.0,90.0,90.0
6912,O4Si2,5.0088,136,4.23181,4.23181,2.693474,90.0,90.0,90.0
6913,O8Zr4,3.4705,14,5.289981,5.214272,5.397296,80.40623,90.0,90.0
6914,Fe4S8,2.0338,205,5.527789,5.527789,5.527789,90.0,90.0,90.0
6915,Cu4N24,0.6118,62,3.124975,9.18727,13.64257,90.0,90.0,90.0
6916,Ba4Br8,4.3529,62,5.055951,8.419953,10.07055,90.0,90.0,90.0
6917,N16S16,0.1565,14,10.85188,8.964205,8.668175,109.9889,90.0,90.0
6918,As8Th6,0.0925,220,7.84523,7.84523,7.84523,109.4712,109.4712,109.4712
6919,F8Pb4,4.3704,62,3.942706,6.555469,7.814824,90.0,90.0,90.0
6920,S2Ti1,0.5374,164,3.4757949999999997,3.4757949999999997,6.150087,89.99762,90.00238,119.9981
6921,Co6S8,0.4223,227,6.828435,6.828435,6.828435,60.0,60.0,60.0
6922,Fe2P4,0.905,58,2.71644,4.936648,5.697982,90.0,90.0,90.0
6923,Se4Sn4,0.6284000000000001,62,4.288218,4.500292,11.96825,90.0,90.0,90.0
6924,Ni1O1,1.7922,225,2.987631,2.987631,2.987631,60.06043,60.06043,60.06043
6925,F14I2,1.8501,41,5.210583,5.210583,9.668932999999999,90.0,90.0,98.4312
6926,O16Se8,3.4072,26,4.699572,5.219735,15.94661,90.0,90.0,90.0
6927,Te2Ti2,0.487,63,4.219581,4.219581,7.000969,90.0,90.0,119.5372
6928,Cl24Mo6,0.7362000000000001,162,12.91765,12.91765,6.644918,90.0,90.0,120.0
6929,Cd1Te1,0.7092,216,4.667947,4.667947,4.667947,60.0,60.0,60.0
6930,Cd1F2,3.049,225,3.872121,3.872121,3.872121,60.0,60.0,60.0
6931,Ge8I32,1.9929999999999999,205,12.87325,12.87325,12.87325,90.0,90.0,90.0
6932,Pb1Se1,0.4035,225,4.389383,4.389383,4.389383,60.0,60.0,60.0
6933,H4Sr2,1.2972000000000001,194,4.110711,4.110701,5.651488,90.0,90.0,120.0001
6934,O66Ti36,0.5937,2,12.37696,7.702398,13.76565,73.44742,71.4765,71.14497
6935,Ca1S1,2.3812,225,4.041907,4.041907,4.041907,60.0,60.0,60.0
6936,Br1K1,3.8927,221,4.036489,4.036489,4.036489,90.0,90.0,90.0
6937,F18Nd6,5.2125,185,7.128858,7.128858,7.325142,90.0,90.0,120.0002
6938,Cl6Pr2,3.0267,176,7.519041,7.524165,4.322954,90.0,90.0,120.111
6939,Ba32P24,0.7444000000000001,55,11.37359,12.69944,13.49579,90.0,90.0,90.0
6940,In32S48,0.922,141,7.7261869999999995,7.7282589999999995,32.83893,90.0,90.0,90.0
6941,Fe2Se2,0.5057,129,4.259209,4.259209,5.394606,90.0,90.0,90.0
6942,O4Ti2,2.267,136,4.672157,4.672157,3.023602,90.0,90.0,90.0