,full_formula,band_gap,spacegroup.number,structure.lattice.a,structure.lattice.b,structure.lattice.c,structure.lattice.alpha,structure.lattice.beta,structure.lattice.gamma
5282,Cl1K1,4.7993,221,3.838882,3.838882,3.838882,90.0,90.0,90.0
5283,Mg24N16,1.5097,206,8.681031,8.681031,8.681031,109.4712,109.4712,109.4712
5284,S4W2,1.3986,194,3.202267,3.202267,13.5561,90.0,90.0,120.0013
5285,I10Pb5,2.4003,156,4.652793,4.652489,37.49681,89.99602,90.0,120.0022
5286,As4Os2,0.8907,58,3.048958,5.46174,6.267489,90.0,90.0,90.0
5287,K2N6,4.1589,140,5.687267,5.687267,5.687267,113.8147,113.8147,101.0952
5288,I8Ti2,1.4429,15,8.514295,8.514295,7.070302,88.58134,88.58134,61.37808
5289,Al12S18,2.7959,169,6.552897,6.552834,18.0577,90.0,90.0,120.0
5290,Cl4F4,2.0695,14,3.7596689999999997,6.550887,7.380711,73.65473,90.0,90.0
5291,O6Si3,5.6984,154,4.984381,4.983805,5.506392,90.00244,89.99501,119.9889
5292,Br2Tl2,2.1516,63,6.693267,6.693267,5.049177,90.0,90.0,141.077
5293,O6Te2,1.1432,167,5.287228,5.287228,5.287228,57.00711,57.00711,57.00711
5294,Cr8F32,1.5094,15,9.118672,9.118672,7.376882,79.39622,79.39622,67.576
5295,O6Si3,5.5309,180,5.107739,5.107739,5.587442,90.0,90.0,120.0
5296,O8Si4,5.5456,92,5.038459,5.038459,7.016879,90.0,90.0,90.0
5297,Ga2S2,1.4935,166,8.115865,8.115865,8.115865,25.79778,25.79778,25.79778
5298,Li8S4,3.9187000000000003,62,3.81515,6.31095,7.270021,90.0,90.0,90.0
5299,O20Se8,2.8903,14,7.137885,4.869172,14.0436,89.09001,90.0,90.0
5300,F1Li1,8.7502,225,2.883673,2.883673,2.883673,60.0,60.0,60.0
5301,Bi2I6,2.4893,148,8.716671,8.716671,8.716671,52.9876,52.9876,52.9876
5302,Cs2O1,0.6399,166,7.603889,7.603889,7.603889,32.63496,32.63496,32.63496
5303,Br1K1,3.896,221,4.035045,4.035045,4.035045,90.0,90.0,90.0
5304,H1K1,3.4369,225,3.995534,3.995534,3.995534,60.0,60.0,60.0
5305,C6N8,0.8713000000000001,227,4.79548,4.79548,4.79548,60.0,60.0,60.0
5306,Cl1Na1,5.0511,225,4.007677,4.007677,4.007677,60.0,60.0,60.0
5307,I8Pb4,2.3830999999999998,186,4.651201,4.65093,29.66231,90.0,90.0,120.0019
5308,N3Na1,4.0157,166,5.531386,5.531386,5.531386,38.62046,38.62046,38.62046
5309,Ge6N8,1.5553,220,5.957326,5.957326,5.957326,109.4712,109.4712,109.4712
5310,Eu4H8,1.5701,62,3.765484,6.214252,7.153805,90.0,90.0,90.0
5311,O8Ti4,3.1232,12,6.513667,6.513667,6.645806,73.62448,73.62448,34.22637
5312,Pb1S1,0.5348,160,4.24644,4.24644,4.24644,59.83876,59.83876,59.83876
5313,Ge8Te8,0.5069,60,6.815821,11.08329,7.345499,90.0,90.0,90.0
5314,Se12Tb8,0.3401,62,4.050111,11.00359,11.21751,90.0,90.0,90.0
5315,Dy16O24,3.9236,206,9.246107,9.246107,9.246107,109.4712,109.4712,109.4712
5316,As8O12,4.0247,227,8.132825,8.132825,8.132825,60.0,60.0,60.0
5317,N6Tl2,1.8172000000000001,140,5.834878,5.834878,5.834878,114.2421,114.2421,100.3007
5318,Hf8O16,4.2272,61,5.085305,5.248027,10.06015,90.0,90.0,90.0
5319,O48Si24,5.5719,205,10.53567,10.53567,10.53567,90.0,90.0,90.0
5320,I4Te4,0.8114,12,8.713602,8.713602,13.11039,50.24223,50.24223,28.33928
5321,O4Ti2,2.2658,136,4.672626,4.672626,3.023162,90.0,90.0,90.0
5322,O4Ti2,2.2644,136,4.672432,4.672432,3.023772,90.0,90.0,90.0
5323,Fe4Si4,0.8718,198,4.422679,4.422679,4.422679,90.0,90.0,90.0
5324,O8Si4,5.427,20,5.226257,5.226257,8.323182,90.0,90.0,121.8192
5325,Cr2F6,2.7462,167,5.377232,5.377232,5.377232,55.87575,55.87575,55.87575
5326,Rb6Se6,0.9142,189,9.401469,9.401488,6.386963,90.0,90.0,119.9999
5327,C4H4,4.9527,199,3.741788,3.741788,3.741788,109.4712,109.4712,109.4712
5328,Pb1Se1,0.39840000000000003,225,4.386927,4.386927,4.386927,60.0,60.0,60.0
5329,Dy6O9,3.992,12,7.255115,7.255115,8.669381,79.92275,79.92275,27.98035
5330,Be2O2,7.455,186,2.710622,2.710554,4.403049,90.0,90.0,120.0008
5331,Mn1S1,0.8196,225,3.736041,3.736041,3.736041,60.0,60.0,60.0
5332,Ce1O2,2.4183,225,3.885084,3.885084,3.885084,60.0,60.0,60.0
5333,B4N4,3.5671,9,4.99527,4.997666,4.348503,84.89788,84.88272,141.7996
5334,Te22Tl44,0.6073000000000001,15,9.269616,9.269573,31.85847,81.70074,81.7006,58.97716
5335,O24Y16,4.0605,206,9.26731,9.26731,9.26731,109.4712,109.4712,109.4712
5336,Cr2F4,2.5588,14,5.151684,5.272071,4.28622,43.37106,90.0,90.0
5337,F4Mg2,6.8402,136,4.6912,4.6912,3.091746,90.0,90.0,90.0
5338,Nd20Se38,0.2554,86,9.349869,9.349869,17.02929,90.0,90.0,90.0
5339,S12Sb8,1.2834,62,3.86998,11.23764,12.15273,90.0,90.0,90.0
5340,Ba20P16,0.9265,62,8.436209,8.520369,16.73321,90.0,90.0,90.0
5341,Ge2O4,1.1737,136,4.477541,4.477541,2.915692,90.0,90.0,90.0
5342,Cr4O6,2.3746,167,5.454081,5.454081,5.454081,55.64871,55.64871,55.64871
5343,O24Si12,5.3857,12,13.14722,13.14722,5.036786,104.1092,104.1092,113.735
5344,Ge1Mg2,0.1913,225,4.526711,4.526711,4.526711,60.0,60.0,60.0
5345,Ni1O1,1.7928000000000002,225,2.9894309999999997,2.9894309999999997,2.9894309999999997,60.0,60.0,60.0
5346,Cs32Ge32,1.3785,218,13.84879,13.84879,13.84879,90.0,90.0,90.0
5347,Si38Te16,0.8683000000000001,161,10.55469,10.55469,10.55469,89.61491,89.61491,89.61491
5348,Eu1F2,2.1058,225,4.171004,4.171004,4.171004,60.0,60.0,60.0
5349,Be1S1,0.9853000000000001,225,3.274937,3.274937,3.274937,60.0,60.0,60.0
5350,O16Si8,5.5503,15,7.234759,7.234759,7.227818,75.56507,75.56507,119.8825
5351,O24Si12,4.9689,195,8.793681,8.793681,8.793681,90.0,90.0,90.0
5352,Cs1H1,2.3222,225,4.52547,4.52547,4.52547,60.0,60.0,60.0
5353,Br16Ga8,2.9496,52,7.616422,10.19501,10.36902,90.0,90.0,90.0
5354,O4Si2,5.0066,136,4.233738,4.233738,2.692668,90.0,90.0,90.0
5355,O6Si3,5.8126,154,4.886329,4.886571,5.517279,89.99723,90.00356,120.0076
5356,Fe2Se2,0.5098,129,4.2373709999999996,4.2373709999999996,5.666504,90.0,90.0,90.0
5357,Cd4P8,1.4819,33,5.237893,5.463974,10.01102,90.0,90.0,90.0
5358,Ga1N1,1.7519,216,3.200581,3.200581,3.200581,60.0,60.0,60.0
5359,Bi2Te3,0.3053,166,10.65775,10.65775,10.65775,24.07309,24.07309,24.07309
5360,Br2Hg2,2.0934,139,6.609944,6.609944,6.609944,136.6847,136.6847,62.92354
5361,O4Ti2,2.2602,136,4.669073,4.669073,3.023344,90.0,90.0,90.0
5362,F4Sr2,5.8647,194,4.155899,4.155704,5.958093,90.0,90.0,120.0016
5363,O4Ti2,2.2651,136,4.672378,4.672378,3.023471,90.0,90.0,90.0
5364,C4O8,6.6121,205,5.885681,5.885681,5.885681,90.0,90.0,90.0
5365,O4Zr2,3.8755,137,3.644617,3.644617,5.3060089999999995,90.0,90.0,90.0
5366,Be1O1,8.183,225,2.5797179999999997,2.5797179999999997,2.5797179999999997,60.0,60.0,60.0
5367,O8Zr4,3.4526,14,5.291491,5.214448,5.390408,80.42475,90.0,90.0
5368,O6W2,0.7391000000000001,129,5.39411,5.39411,3.965516,90.0,90.0,90.0
5369,Na4S4,1.2368000000000001,194,4.494553,4.494488,10.25876,90.0,90.0,120.0005
5370,Cl6Pr2,3.025,176,7.527253,7.510238,4.321441,90.0,90.0,119.9929
5371,O4Ti2,2.2633,136,4.671978,4.671978,3.023821,90.0,90.0,90.0
5372,Br6Hg3,1.6469,1,7.117146,7.1736889999999995,6.698672,89.48659,90.46167,120.0558
5373,F3Sc1,6.5706,221,4.123687,4.123687,4.123687,90.0,90.0,90.0
5374,Al4O6,5.8494,167,5.180638,5.180638,5.180638,55.29938,55.29938,55.29938
5375,Ag4O2,0.08710000000000001,224,4.879024,4.879024,4.879024,90.0,90.0,90.0
5376,S4Sn4,0.9394,62,4.085281,4.410253,11.71792,90.0,90.0,90.0
5377,Ge6N8,1.8468,227,5.882075,5.882075,5.882075,60.0,60.0,60.0
5378,Pb4S4,1.2089,62,4.276075,4.245622,12.04268,90.0,90.0,90.0
5379,Na4P20,1.3845,62,6.546936,7.07317,11.04478,90.0,90.0,90.0
5380,B1N1,4.4562,216,2.5634930000000002,2.5634930000000002,2.5634930000000002,60.0,60.0,60.0
5381,F4Tl4,3.0396,28,5.4251439999999995,5.445455,6.391116,90.0,90.0,90.0
5382,Li4O4,1.6306,194,3.33634,3.336251,7.892012,90.0,90.0,120.0034
5383,C4Ca2,2.2262,12,4.09532,4.09532,7.382462,75.16312,75.16312,55.77042
5384,O16Ti8,2.5702,61,5.262942,5.545353,9.354929,90.0,90.0,90.0
5385,Se2Sn1,0.543,164,3.927886,3.92787,6.415658,90.00568,90.0,120.0001
5386,S20U12,0.1631,62,7.610838,8.19933,12.06175,90.02945,90.0,90.0
5387,Cr2P8,0.1757,15,5.999817,5.999817,5.769617,81.10137,81.10137,128.4546
5388,Cu2I2,1.4262000000000001,63,5.375599,5.375599,4.370609,90.0,90.0,91.90448
5389,As16Zn24,0.15460000000000002,206,10.19339,10.19339,10.19339,109.4712,109.4712,109.4712
5390,In4Te10,0.84,9,8.787316,8.787316,13.96941,89.59461,89.59461,151.1875
5391,O4Ti2,2.5442,141,5.571678,5.571678,5.571678,139.41,139.41,58.75024
5392,Cd2S2,1.2631000000000001,186,4.190481,4.190481,6.804446,90.0,90.0,119.9948
5393,F4Mg2,6.8386,58,3.093996,4.667041,4.714795,90.0,90.0,90.0
5394,Ga1N1,0.6317,225,3.002105,3.002105,3.002105,60.0,60.0,60.0
5395,Pr8S12,0.8134,62,4.081285,7.552737,15.719899999999999,90.0,90.0,90.0
5396,O6Si3,5.5548,155,5.329332,5.328932,5.328765,97.54476,97.54117,97.54704
5397,Se4Sn4,0.6575000000000001,62,4.252471,4.592455,11.93968,90.0,90.0,90.0
5398,Ca8Sn4,0.1,62,5.098913,7.953955,9.619377,90.0,90.0,90.0
5399,Hf1S2,1.2359,164,3.644875,3.644875,6.619366,89.99237,90.00763,119.9934
5400,Mn4S8,1.2286,205,5.647753,5.647753,5.647753,90.0,90.0,90.0
5401,Mn5O8,0.5324,12,6.010657,6.010657,4.977129,72.95445,72.95445,58.37939
5402,S18Zn18,2.6844,156,3.798472,3.7984489999999997,55.85688,89.99997,90.0,120.0002
5403,K2N6,4.1587,140,5.687414,5.687414,5.687414,113.8147,113.8147,101.0953
5404,S6Ti2,0.6901,11,3.471531,5.069436,9.183145,94.7142,90.0,90.0
5405,S2Zn2,2.7423,186,3.797023,3.796786,6.216062,90.0,90.0,120.0021
5406,Cr2F6,2.7376,167,5.394168,5.394168,5.394168,55.54687,55.54687,55.54687
5407,O8Se4,3.442,26,4.701578,5.220054,8.025624,90.0,90.0,90.0
5408,I1K1,3.8609999999999998,225,5.073133,5.073133,5.073133,60.0,60.0,60.0
5409,Dy16O24,3.9277,206,9.244128,9.244128,9.244128,109.4712,109.4712,109.4712
5410,S4Yb2,0.8496,15,4.903582,4.903582,8.026391,63.71406,63.71406,52.89621
5411,Co4Sb12,0.1509,204,7.871393,7.871393,7.871393,109.4712,109.4712,109.4712
5412,Mn1Se1,0.39840000000000003,225,3.915408,3.915408,3.915408,60.0,60.0,60.0
5413,N8Si6,4.246,176,7.660539,7.660496,2.925026,90.0,90.0,120.0005
5414,Ba1Se1,1.9488,225,4.7275,4.7275,4.7275,60.0,60.0,60.0
5415,I20Pb10,2.3609,156,4.655233,4.655915,73.43216,89.99586,90.0,119.9952
5416,K2N6,4.1591000000000005,140,5.686509,5.686509,5.686509,113.8117,113.8117,101.1008
5417,C1Si1,1.3704,216,3.096503,3.096503,3.096503,60.0,60.0,60.0
5418,Br1Tl1,1.9534,221,4.036794,4.036794,4.036794,90.0,90.0,90.0
5419,O4Pb2,0.0236,136,5.078621,5.078621,3.446601,90.0,90.0,90.0
5420,Cd1F2,3.0542,225,3.870359,3.870359,3.870359,60.0,60.0,60.0
5421,Cd2Te2,0.7345,186,4.660947,4.660479,7.655591,90.0,90.0,120.0033
5422,C2Ca1,1.3305,139,4.220393,4.220393,4.220393,125.1145,125.1145,81.34853
5423,Ca24N16,1.1156,206,9.937572,9.937572,9.937572,109.4712,109.4712,109.4712
5424,Fe4Ga12,0.5426,136,6.229812,6.229812,6.485036,90.0,90.0,90.0
5425,S20Th8,2.0669,60,7.781022,7.840326,10.4922,90.0,90.0,90.0
5426,Ru4Se8,0.864,205,6.021302,6.021302,6.021302,90.0,90.0,90.0
5427,As8Ce4,0.0309,14,6.965837,4.203625,10.32603,83.83741,90.0,90.0
5428,Pt1S2,1.2424,164,3.564886,3.564886,5.67794,90.00154,89.99846,119.9994
5429,Mo2S4,1.2393,194,3.198091,3.198091,13.47669,90.0,90.0,119.9918
5430,Na6S6,0.8573000000000001,189,7.635013,7.634849,5.393516,90.0,90.0,120.0007
5431,Se1Yb1,1.3191,225,4.223087,4.223087,4.223087,60.0,60.0,60.0
5432,O6Si3,5.6665,154,5.035846,5.035873,5.511703,90.00035,90.0,120.0007
5433,F16Sn8,3.3562,15,7.157716,7.157716,14.28214,73.726,73.726,42.40486
5434,K2N6,4.1591000000000005,140,5.682312,5.682312,5.682312,113.7961,113.7961,101.1299
5435,I6Zn3,1.9936,166,4.059446,4.059446,21.98678,89.99769,90.00231,120.0004
5436,O6Si3,5.5367,180,5.102745,5.102745,5.594297,90.0,90.0,120.0
5437,Cd2Se2,0.6899000000000001,186,4.373538,4.373538,7.133773,90.0,90.0,119.9943
5438,N4O8,2.6778,14,4.875329,6.170182,6.698504,63.68317,90.0,90.0
5439,In16Se12,0.1408,58,4.158736,12.49163,15.49195,90.0,90.0,90.0
5440,Br8Se8,1.7208,14,15.33476,5.372849,7.650953,86.49922,90.0,90.0
5441,Cl8U2,2.2724,141,7.112429,7.112429,7.112429,107.2875,107.2875,113.9329
5442,B4F8,4.877,14,8.453427,5.165929,5.834784,78.35621,90.0,90.0
5443,O24Y16,4.0552,206,9.267268,9.267268,9.267268,109.4712,109.4712,109.4712
5444,Pb4Te4,0.7479,62,4.687601,4.584131,13.21874,90.0,90.0,90.0
5445,Cd8I16,2.4008000000000003,156,4.310659,4.310619,58.06721,90.0018,90.0,120.0003
5446,O24Si12,2.2854,167,11.00508,11.00526,11.00511,114.35,114.3505,114.35
5447,Fe2Se2,0.5499,129,4.222686,4.222686,5.95487,90.0,90.0,90.0
5448,As1Ga1,0.2947,216,4.055377,4.055377,4.055377,60.0,60.0,60.0
5449,F12Pb4,1.8946,116,5.3811,5.3811,9.247465,90.0,90.0,90.0
5450,C2Sr1,1.6414,139,4.47203,4.47203,4.47203,125.2053,125.2053,81.19819
5451,As8O12,4.0195,227,8.22062,8.22062,8.22062,60.0,60.0,60.0
5452,Fe4O6,1.2818,167,5.5131049999999995,5.5131049999999995,5.5131049999999995,55.72323,55.72323,55.72323
5453,H16S8,3.251,142,8.233173,8.233173,8.233173,117.226,117.226,94.87592
5454,Cl6Pr2,3.0264,176,7.5263,7.510144,4.320007,90.0,90.0,119.972
5455,Al6H18,3.2282,58,5.398832,5.751525,7.344887,90.0,90.0,90.0
5456,Mn4Te8,0.1711,205,7.076158,7.076158,7.076158,90.0,90.0,90.0
5457,Hg2I4,1.2863,137,4.496326,4.496326,13.5541,90.0,90.0,90.0
5458,Se4Sn4,0.6579,62,4.261596,4.584189,11.94193,90.0,90.0,90.0
5459,Er1N1,0.123,225,3.4279859999999998,3.4279859999999998,3.4279859999999998,60.0,60.0,60.0
5460,Rb8Te12,0.6543,62,4.738536,10.92029,16.23284,90.0,90.0,90.0
5461,Sn1Te1,0.0747,225,4.562584,4.562584,4.562584,60.0,60.0,60.0
5462,O8Ti4,1.9306,205,4.943182,4.943182,4.943182,90.0,90.0,90.0
5463,Pb1Te1,0.7988000000000001,225,4.636535,4.636535,4.636535,60.0,60.0,60.0
5464,O1Sr1,3.2754,225,3.680638,3.680638,3.680638,60.0,60.0,60.0
5465,Cu8N24,2.2548,61,6.079598,6.192134,10.41524,90.0,90.0,90.0
5466,F1Na1,6.124,225,3.31565,3.31565,3.31565,60.0,60.0,60.0
5467,Be4O4,7.0887,136,4.641756,4.641756,2.6993039999999997,90.0,90.0,90.0
5468,Li2S1,3.3859,225,4.046773,4.046773,4.046773,60.0,60.0,60.0
5469,Pb1S1,0.46540000000000004,225,4.246251,4.246251,4.246251,60.0,60.0,60.0
5470,O36Si18,5.6415,13,8.841893,7.470313,15.89829,88.79484,90.0,90.0
5471,O24Sc16,4.2785,206,8.699494,8.699494,8.699494,109.4712,109.4712,109.4712
5472,Cs8Se12,0.7341000000000001,36,8.162227,11.68273,8.51363,90.0,90.0,90.0
5473,O8Zr4,3.4649,14,5.284778,5.217282,5.398541,80.38446,90.0,90.0
5474,F4V2,1.7078,136,4.894173,4.894173,3.313851,90.0,90.0,90.0
5475,O8Ti4,2.489,14,4.9623729999999995,4.914593,5.106179,80.06893,90.0,90.0
5476,O24Tb16,3.8995,206,9.299939,9.299939,9.299939,109.4712,109.4712,109.4712
5477,O16Si8,5.5441,14,4.959613,8.687896,8.857001,69.51685,90.0,90.0
5478,O24Y16,4.0521,206,9.2674,9.2674,9.2674,109.4712,109.4712,109.4712
5479,O8Zr4,3.4609,14,5.286087,5.216215,5.393958,80.38878,90.0,90.0
5480,Al4O6,5.8525,167,5.181398,5.181398,5.181398,55.28385,55.28385,55.28385
5481,Ag1I1,1.9771,216,4.703407,4.703407,4.703407,60.0,60.0,60.0
5482,Na2Te1,2.0539,225,5.165537,5.165537,5.165537,60.0,60.0,60.0
5483,O24Tb16,3.8996,206,9.303725,9.303725,9.303725,109.4712,109.4712,109.4712
5484,Br32Ti8,3.0627,205,12.12582,12.12582,12.12582,90.0,90.0,90.0
5485,Br32Ge8,2.9473000000000003,205,12.10163,12.10163,12.10163,90.0,90.0,90.0
5486,Na6P2,0.4651,194,4.929492,4.929663,8.799128,90.0,90.0,119.9989
5487,Se6Zr2,0.2947,11,3.787681,5.479859,9.752022,82.73768,90.0,90.0
5488,Ge3O6,0.8869,1,5.00623,5.021183,5.363347,89.80118,90.50306,120.2338
5489,O4V2,0.7285,136,4.514308,4.514308,3.029512,90.0,90.0,90.0
5490,Al4O6,5.8505,167,5.181026,5.181026,5.181026,55.29245,55.29245,55.29245
5491,Rb4S2,1.8928,194,5.573115,5.573115,7.687803,90.0,90.0,120.0
5492,O6Si3,5.7069,152,4.978263,4.977534,5.471292,89.99593,89.99987,120.0009
5493,Br8Th2,3.0472,88,8.516047,8.516047,8.516047,130.6718,130.6718,72.3351
5494,F6Fe2,2.6699,167,5.455582,5.455582,5.455582,58.07516,58.07516,58.07516
5495,Al8O12,5.3126,60,4.845528,4.984476,7.089389,90.0,90.0,90.0
5496,Pb1S1,0.4655,225,4.24628,4.24628,4.24628,60.0,60.0,60.0
5497,O6V4,0.030100000000000002,167,5.560455,5.560455,5.560455,54.77025,54.77025,54.77025
5498,Te2Ti2,0.487,63,4.219581,4.219581,7.000969,90.0,90.0,119.5372
5499,Cd15I30,2.3018,156,4.313989,4.31402,108.9462,90.0,90.00119,120.0002
5500,Ag1Br1,1.5729000000000002,225,4.120471,4.120471,4.120471,60.0,60.0,60.0
5501,Cd1Se1,0.6411,216,4.370445,4.370445,4.370445,60.0,60.0,60.0
5502,S2Sn1,1.3107,164,3.754633,3.754651,6.20725,90.00327,90.0,119.9998
5503,Ga4S6,1.7241,9,6.535579,6.535579,7.113523,63.37468,63.37468,59.57846
5504,Ga1P1,1.6437,216,3.883855,3.883855,3.883855,60.0,60.0,60.0
5505,Ag1I1,1.4673,225,4.358256,4.358256,4.358256,60.0,60.0,60.0
5506,Br2F6,2.1704,36,5.058656,5.058656,6.099837,90.0,90.0,106.227
5507,Ag1Br1,1.5728,225,4.121337,4.121337,4.121337,60.0,60.0,60.0
5508,Mg1O1,4.47,225,3.007155,3.007155,3.007155,60.0,60.0,60.0
5509,Al2N2,4.0615,186,3.126171,3.126002,5.019338,90.0,90.0,119.9982
5510,Cu4O2,0.6532,224,4.2915600000000005,4.2915600000000005,4.2915600000000005,90.0,90.0,90.0
5511,O4Si2,5.0144,136,4.232355,4.232355,2.692862,90.0,90.0,90.0
5512,S1Zn1,2.6788,216,3.7979279999999997,3.7979279999999997,3.7979279999999997,60.0,60.0,60.0
5513,F18Nd6,4.2827,193,7.147936,7.147936,7.121609,90.0,90.0,120.001
5514,Se1Zn1,1.6955,216,4.011302,4.011302,4.011302,60.0,60.0,60.0
5515,I2Pb1,2.3607,164,4.646462,4.646462,7.340482,89.99272,90.00728,119.9948
5516,C18Si18,1.9904000000000002,156,3.093912,3.093901,45.56547,90.00004,90.0,120.0001
5517,Ga4O6,2.1639,12,6.368465,6.368465,5.857065,76.7201,76.7201,27.88259
5518,Cl1Rb1,4.8394,225,4.735695,4.735695,4.735695,60.0,60.0,60.0
5519,Cl6Fe2,1.9947,148,6.196822,7.263015,6.197589,64.72424,59.96948,64.73267
5520,Pd4Se8,0.525,61,5.77976,5.927261,8.287922,90.0,90.0,90.0
5521,Pb4Se4,0.40240000000000004,225,4.385768,4.392514,12.41369,90.0,90.0,90.0
5522,P16Se16,2.2322,14,7.4346,12.37627,12.71166,64.03077,90.0,90.0
5523,Ge16Sr8,0.3614,62,6.587684,8.806621,11.21175,90.0,90.0,90.0
5524,O4Ti2,2.2579000000000002,136,4.669486,4.669486,3.023298,90.0,90.0,90.0
5525,Mn1Se1,0.3985,225,3.916172,3.916172,3.916172,60.0,60.0,60.0
5526,Cl4Cr2,2.1786,58,3.538385,6.153553,6.871493,90.0,90.0,90.0
5527,Ga12Os4,0.6507000000000001,136,6.5341000000000005,6.5341000000000005,6.794976,90.0,90.0,90.0
5528,O16P8,4.5375,15,7.318411,7.318411,7.395638,84.7745,84.7745,93.30092
5529,O8Si4,5.5491,92,5.028262,5.028262,6.978102,90.0,90.0,90.0
5530,Ba1O1,2.0888,225,3.969401,3.969401,3.969401,60.0,60.0,60.0
5531,B1P1,1.2475,216,3.214708,3.214708,3.214708,60.0,60.0,60.0
5532,F9Fe3,2.5077,150,5.494265,5.494265,6.80696,90.01694,89.98306,120.0267
5533,Cl1Rb1,4.8417,225,4.734535,4.734535,4.734535,60.0,60.0,60.0
5534,Cs1I1,3.6817,221,4.662835,4.662835,4.662835,90.0,90.0,90.0
5535,O8Zr4,3.4665,14,5.283895,5.223488,5.397911,80.28433,90.0,90.0
5536,O16Si8,5.5441,15,7.236286,7.236286,7.219847,75.51754,75.51754,119.7539
5537,Ce2Cl6,4.2518,176,7.569397,7.569759,4.343745,90.0,90.0,119.9919
5538,S1Sr1,2.4958,225,4.286905,4.286905,4.286905,60.0,60.0,60.0
5539,Ge2O4,1.1674,136,2.912102,4.480991,4.487801,90.0,90.0,90.0
5540,F28Sb8,3.8388,11,11.07132,4.93769,11.05076,84.76257,90.0,90.0
5541,Mg2Si1,0.2335,225,4.488605,4.488605,4.488605,60.0,60.0,60.0
5542,Ho1N1,0.0906,225,3.453,3.453,3.453,60.0,60.0,60.0
5543,Hf4O8,3.4204,71,3.328258,4.065255,12.75044,90.0,90.0,90.0
5544,Pb2S2,1.6893,5,4.250299,4.250299,22.40678,86.17085,86.17085,90.14744
5545,Os4Te8,0.13290000000000002,205,6.475514,6.475514,6.475514,90.0,90.0,90.0
5546,S8Tc4,1.114,2,6.419717,7.3041409999999996,6.52342,65.55207,61.13318,77.53542
5547,Fe2S4,1.7359,58,3.463008,4.492902,5.515898,90.0,90.0,90.0
5548,Cd4I8,2.3695,164,4.3106,4.310576,28.91866,89.99987,90.0,120.0004
5549,Pb1Se1,0.39840000000000003,225,4.386927,4.386927,4.386927,60.0,60.0,60.0
5550,S2Sn1,1.3621,164,3.7474119999999997,3.747372,6.562879,90.00008,90.0,120.0004
5551,Ga2N2,1.9084,186,3.20583,3.20583,5.219849,90.0,90.0,119.9965
5552,S4W2,1.2896,194,3.201903,3.201903,13.20141,90.0,90.0,119.9956
5553,O16Si8,5.5478000000000005,15,7.234225,7.234225,7.218765,75.5542,75.5542,119.811
5554,Cl6Ga2,4.1393,12,7.108039,7.108039,7.242887,59.76413,59.76413,60.75466
5555,O4Ti2,2.5612,141,5.584286,5.584286,5.584286,139.5456,139.5456,58.54394
5556,O2Si1,1.7313,225,3.241314,3.241314,3.241314,60.0,60.0,60.0
5557,O4Ti2,2.2633,136,4.673016,4.673016,3.023005,90.0,90.0,90.0
5558,Ga4O6,2.1577,12,6.368369,6.368369,5.8631329999999995,76.60208,76.60208,27.89891
5559,O4Zr2,3.8741,137,3.645019,3.645019,5.301008,90.0,90.0,90.0
5560,O8Si4,2.6286,1,5.134677,4.214468,10.679030000000001,137.359,87.1604,94.30286