,full_formula,band_gap,spacegroup.number,structure.lattice.a,structure.lattice.b,structure.lattice.c,structure.lattice.alpha,structure.lattice.beta,structure.lattice.gamma
11414,Al8Br28K4,4.1091,14,11.32658,11.06639,12.63107,77.06171,90.0,90.0
11415,Br4Li2Mn1,3.6694,65,6.843805,6.843805,3.9042310000000002,90.0,90.0,110.2051
11416,Cl4Hg6Se4,1.7767,199,8.100136,8.100136,8.100136,109.4712,109.4712,109.4712
11417,F14Sr2Ta2,5.6472,11,7.350642,4.988172,6.837162,85.46897,90.0,90.0
11418,Pt6Se16Ta4,0.7767000000000001,55,3.6111779999999998,11.06994,15.4527,90.0,90.0,90.0
11419,Al1Ir1La2,0.15430000000000002,216,5.020477,5.020477,5.020477,60.0,60.0,60.0
11420,Ca4O14V4,2.9192,2,6.760948,7.069241,7.137027,85.05392,63.78388,82.07309
11421,Mg2O6Ti2,3.8314,148,5.551764,5.551764,5.551764,55.14552,55.14552,55.14552
11422,Ba2Co2O6,0.6168,194,5.739618,5.739594,4.863314,90.0,90.0,120.0001
11423,F4Mg1Rb2,6.2312,139,7.584765,7.584765,7.584765,148.4026,148.4026,45.29146
11424,B2H12N2,5.9547,31,4.799147,5.183847,5.572443,90.0,90.0,90.0
11425,Ca4O14Os4,0.0703,74,7.328377,7.328377,7.328377,120.2053,118.5545,91.08329
11426,Cs2Ga2S4,3.1075,15,7.266825,7.266825,5.963483,78.39327,78.39327,116.9866
11427,Br8P16Se12,2.2324,15,10.55119,10.55119,13.26122,72.4272,72.4272,99.28066
11428,B4Ni6O12,2.5529,58,4.502137,5.465841,8.413087,90.0,90.0,90.0
11429,Cs3H9Mg3,2.6477,166,8.259662,8.259662,8.259662,44.31396,44.31396,44.31396
11430,F3In1Sn1,0.7395,221,4.748633,4.748633,4.748633,90.0,90.0,90.0
11431,Eu2O6Ti2,0.7658,140,5.610981,5.610981,5.608055,119.9827,119.9828,90.05972
11432,Cr2Er2O8,0.188,141,5.944787,5.944787,5.944787,106.0188,106.0188,116.6216
11433,Ga2La2O6,3.3837,167,5.532754,5.532754,5.532754,60.90436,60.90436,60.90436
11434,Cl8O2Rb12,1.657,167,9.167579,9.167579,9.167579,89.35418,89.35418,89.35418
11435,C2Mg2O6,4.974,167,5.729766,5.729766,5.729766,48.40251,48.40251,48.40251
11436,Al20Er12O48,4.7584,230,10.43571,10.43571,10.43571,109.4712,109.4712,109.4712
11437,F12Na6Sc2,6.1161,14,6.423866,5.995385,8.558498,109.1002,90.0,90.0
11438,I10In2Sn4,1.4147,140,10.04304,10.04304,10.04304,127.2013,127.2013,77.92252
11439,N2Te1Th2,1.2507000000000001,139,7.384253,7.384253,7.384253,146.5871,146.5871,47.97553
11440,As3Ga3O12,3.113,152,5.118528,5.118494,11.61732,90.0033,89.99793,120.0028
11441,Cr4O8Si2,1.8984,70,7.57665,6.386037,5.759693,76.99858,55.21017,47.79126
11442,Ba1Se2Sn1,0.5911000000000001,225,5.514847,5.514847,5.514847,60.0,60.0,60.0
11443,Al2Hg1S4,2.0219,82,6.521455,6.521455,6.521455,128.855,128.855,75.24404
11444,Fe1S4V2,0.8751,12,3.517791,3.517791,11.65062,89.09431,89.09431,59.62339
11445,Br22Nb8Rb2,0.49620000000000003,51,7.400483,7.38503,17.11712,90.0,90.0,90.0
11446,Cu1Lu1S2,1.745,156,3.854216,3.854216,6.123631,90.00033,89.99967,120.0001
11447,Nb4O26Se8,0.1558,7,6.649183,9.500231,13.45562,62.09096,90.0,90.0
11448,O7Tl4V2,2.588,164,6.090255,6.090251,7.904933,89.99882,90.0012,120.0009
11449,As6Cd4I2,0.78,9,6.500884,6.500884,8.138976,82.87046,82.87046,97.35056
11450,Co4O16S4,3.6579,62,4.7946729999999995,6.791689,8.692171,90.0,90.0,90.0
11451,Ba2Ce2O6,2.8888,167,6.291937,6.291937,6.291937,60.51434,60.51434,60.51434
11452,Cd2Cr4Se8,0.34640000000000004,227,7.753458,7.753458,7.753458,60.0,60.0,60.0
11453,Bi4O14Ti4,2.8929,227,7.406444,7.406444,7.406444,60.0,60.0,60.0
11454,H12O16P4,5.9108,14,4.8249379999999995,5.914709,11.97156,83.54504,90.0,90.0
11455,Cd1H2O2,1.8275000000000001,164,3.566638,3.566548,4.794133,90.00237,90.0,120.0008
11456,Cu1Na1O2,0.7899,12,3.548351,3.548351,6.210165,60.74949,60.74949,46.0092
11457,Na8O16U4,2.9066,56,6.029969,6.017581,11.99872,90.0,90.0,90.0
11458,Na4Nb8O22,2.9455,9,6.319019,6.319209,12.87637,75.65933,75.65933,59.08104
11459,Cd1In2Te4,0.8975000000000001,82,7.764382,7.764382,7.764382,131.1863,131.1863,71.5172
11460,Ba1O3Ti1,2.1367,221,4.060187,4.060187,4.059238,90.0,90.0,90.0
11461,Ge4O16Sr8,3.1684,14,6.423415,6.073572,14.85547,60.88579,90.0,90.0
11462,Ir1O3Y1,0.2781,221,3.9768600000000003,3.9768600000000003,3.9768600000000003,90.0,90.0,90.0
11463,O16Si2Sn12,1.874,186,7.464377,7.46425,12.17929,90.0,90.0,120.0006
11464,Be4F16Na8,6.7507,14,8.105285,5.62152,8.006619,80.21567,90.0,90.0
11465,Ag6O8V2,1.3702,15,5.968123,5.968123,10.45094,66.42542,66.42542,49.48756
11466,Mn2Se6Th2,0.39280000000000004,63,6.894629,6.894629,9.483041,90.0,90.0,145.2812
11467,B2H16N2,5.5327,28,4.145879,4.194663,8.450469,90.0,90.0,90.0
11468,In4Mg2O8,1.9939,227,6.379315,6.379315,6.379315,60.0,60.0,60.0
11469,I6Rh2Te12,1.126,167,9.995083,9.995083,9.995083,109.3909,109.3909,109.3909
11470,O24S4U4,2.9336,14,6.021073,6.865686,13.01171,77.14405,90.0,90.0
11471,C1K2N2,3.172,12,4.089732,4.089732,5.8901509999999995,76.44834,76.44834,89.32162
11472,Ag12O24Te6,0.4781,15,6.57822,6.57822,13.92818,88.73397,88.73397,91.82226
11473,As10Ca10Cd5,0.7214,8,11.02731,11.02731,14.46282,70.40939,70.40939,22.63395
11474,Al2Cu2O4,2.0286,194,2.876815,2.876815,11.3742,90.0,90.0,120.0008
11475,Hg1Ni1Y2,0.1839,216,4.910333,4.910333,4.910333,60.0,60.0,60.0
11476,O14Tb4Ti4,3.3021000000000003,227,7.247124,7.247124,7.247124,60.0,60.0,60.0
11477,Cd2In4S8,1.1989,227,7.766617,7.766617,7.766617,60.0,60.0,60.0
11478,Al4O8Zn2,4.4913,227,5.731179,5.731179,5.731179,60.0,60.0,60.0
11479,Ba2Mo2O8,3.9792,88,7.679445,7.679445,7.679445,136.5578,136.5578,63.11919
11480,Na4S4Zn2,2.6844,72,7.077902,7.077902,7.077902,130.9525,126.2455,75.71895
11481,Cl6K2Pt1,1.9828999999999999,225,7.07685,7.07685,7.07685,60.0,60.0,60.0
11482,Mn4O10Sr4,0.11670000000000001,55,3.862198,5.62504,11.01036,90.0,90.0,90.0
11483,Mn8S16Si4,1.6907,62,5.986401,7.540096,12.87774,90.0,90.0,90.0
11484,F3Mn1Na1,1.4802,221,4.039221,4.039221,4.039221,90.0,90.0,90.0
11485,Ag4Cl12Cs8,3.6259,62,4.668023,13.48882,13.96674,90.0,90.0,90.0
11486,Fe4O16P4,2.0332,62,5.902981,4.888412,10.0108,90.0,90.0,90.0
11487,C3Ca3O9,4.958,5,5.036827,5.036827,8.729717,89.52838,89.52838,59.74058
11488,O6Sr2Ti2,2.4112,140,5.596866,5.596864,5.618202,119.8744,119.8744,90.00019
11489,Bi4In8S18,1.6626,11,3.970906,11.29773,16.4938,85.73528,90.0,90.0
11490,Ga16K16O32,3.1314,61,5.583994,11.18792,15.96767,90.0,90.0,90.0
11491,Ca8Fe8O20,0.6161,62,5.538913,5.657214,14.88577,90.0,90.0,90.0
11492,Ca1O4U1,2.7955,166,6.314183,6.314183,6.314183,36.39133,36.39133,36.39133
11493,Ba8Ge8Te20,0.6146,33,9.337214,10.09109,13.58981,90.0,90.0,90.0
11494,Al2H2O4,5.9006,58,2.864636,4.187589,4.735321,90.0,90.0,90.0
11495,K4P2Zn1,0.9114000000000001,166,9.309813,9.309813,9.309813,35.51555,35.51555,35.51555
11496,Fe2Ge1Hf1,0.1338,225,4.229905,4.229905,4.229905,60.0,60.0,60.0
11497,Hg6O10Se8,1.8899,2,9.996256,7.968358,7.965128,72.79339,63.86037,73.19006
11498,Ag20O26Si8,0.7714000000000001,2,11.6655,8.151283,9.261602,80.45244,66.38139,73.48296
11499,Cr2O6U1,1.2059,162,5.066825,5.066851,4.692275,90.00082,89.99854,120.0001
11500,As1Ga1Rb2,0.4153,225,5.828402,5.828402,5.828402,60.0,60.0,60.0
11501,Fe4O8Si2,2.4044,227,5.893157,5.893157,5.893157,60.0,60.0,60.0
11502,Ca6O18Si6,4.7307,2,6.777526,9.370518,6.738869,83.50945,75.96012,69.7373
11503,Ba3O18V6,2.758,21,7.7681000000000004,7.7681000000000004,8.0643,90.0,90.0,112.545
11504,Ag12C6O18,1.1274,159,9.161035,9.162349,6.96315,90.00013,89.99974,119.9953
11505,Ga2La2O6,3.3977,167,5.533336,5.533336,5.533336,60.84454,60.84454,60.84454
11506,I12K4Tc2,1.2486,14,8.151049,8.033781,11.56967,89.66423,90.0,90.0
11507,Hg4S32Sb16,1.1273,15,11.42064,11.42064,30.71155,76.23657,76.23657,20.10668
11508,Ba8In4S16,1.9509,2,6.338901,10.20602,13.17834,104.0854,90.45309,90.97646
11509,Fe8O24W4,1.5777999999999999,60,4.615137,5.058977,16.96896,90.0,90.0,90.0
11510,Cd8H32N64,3.3176,14,12.02888,7.916809,12.80859,85.77849,90.0013,90.00363
11511,Ag1O2Yb1,0.5006,166,6.562368,6.562368,6.562368,30.38995,30.38995,30.38995
11512,Cr1Cu2Pt1,0.0606,216,4.187139,4.187139,4.187139,60.0,60.0,60.0
11513,C4Hg4N8,1.9168,14,9.383854,6.027998,6.437355,57.41277,90.0,90.0
11514,Mn2Na12Te8,1.5716,186,10.11962,10.11972,7.739907,90.0,90.0,119.9997
11515,Cl12Re1Te2,1.8164,2,6.786723,7.235299,11.338,70.87799,75.03153,63.34162
11516,Cl6K4Mn1,3.7163,229,7.786866,7.786866,7.786866,109.4726,109.4726,109.4726
11517,Bi8Cu6La6,0.1759,220,8.79952,8.79952,8.79952,109.4712,109.4712,109.4712
11518,Cs2F6Nb1,1.1828,12,6.559475,6.388845,5.158047,90.30288,90.0,120.8875
11519,Mn6O12W2,1.8304,148,6.294299,6.294299,6.294299,91.3435,91.3435,91.3435
11520,Ag2P2S6,1.5177,12,6.772448,6.772448,6.9954149999999995,59.773740000000004,59.773740000000004,65.75545
11521,P4Si2Zn2,1.3682,122,6.490006,6.490006,6.490006,130.741,130.741,72.22491
11522,Na2O10V4,0.5162,59,3.654232,4.95416,11.43062,90.0,90.0,90.0
11523,C2Na4O6,3.1745,194,5.258468,5.258468,6.377534,90.0,90.0,120.0032
11524,Mn4O8Zn2,0.8246,141,6.189426,6.189426,6.189426,124.2406,124.2406,82.79974
11525,O24Pb8Zr8,2.7994,55,5.992501,8.3205,11.94107,90.0,90.0,90.0
11526,Cu4Dy4S8,1.8718,19,3.979797,6.263465,13.46313,90.0,90.0,90.0
11527,O4Sn1Sr2,2.1812,139,7.003782,7.003782,7.003782,145.3028,145.3028,49.88347
11528,O8W2Zn2,3.074,13,5.758067,4.672756,4.9544239999999995,90.79419,90.0,90.0
11529,O14Rb3V5,2.2155,157,8.79669,8.79669,5.61706,89.99984,89.99984,119.9999
11530,Br56Mo24Pb4,2.4885,201,13.95207,13.95207,13.95207,90.0,90.0,90.0
11531,In2Se4Tl2,0.6923,140,6.768575,6.768575,6.768575,105.1872,105.1872,118.4278
11532,I2Li2O6,3.6754,173,5.552287,5.552305,5.26357,90.0,90.0,120.0024
11533,In2O8V2,3.0349,63,5.215227,5.215227,6.722683,90.0,90.0,112.0434
11534,Cl8Cr2Cs4,0.3452,139,5.280297,5.280297,16.72764,90.0,90.0,90.0
11535,Cr4O8Zn2,2.6341,227,5.951358,5.951358,5.951358,60.0,60.0,60.0
11536,Cl24Se16Zr4,1.3488,138,11.12958,11.12958,11.28556,90.0,90.0,90.0
11537,I20K8U4,2.5512,62,9.333273,9.969740999999999,14.73172,90.0,90.0,90.0
11538,P8Pb12S32,2.2359,198,11.2015,11.2015,11.2015,90.0,90.0,90.0
11539,Al1F4Na1,5.7793,123,3.618915,3.618915,6.16854,90.0,90.0,90.0
11540,Bi2K2Mg2,0.4267,129,4.922814,4.922814,8.493861,90.0,90.0,90.0
11541,Bi4I4O16,2.3956,29,5.711765,5.787298,11.2843,90.0,90.0,90.0
11542,Cl6Pt1Rb2,2.09,225,7.234963,7.234963,7.234963,60.0,60.0,60.0
11543,Os4P4S4,1.0484,14,5.813759,5.795648,5.866962,69.33838,90.0,90.0
11544,Cu20O16Rb12,1.7401,14,7.502847,9.924131,14.44957,73.38231,90.0,90.0
11545,Dy8O20V4,1.3632,15,8.374621,8.374621,10.36443,61.44142,61.44142,48.85664
11546,In2Te4Zn1,0.9338000000000001,82,7.674073,7.674073,7.674073,132.2337,132.2337,69.86023
11547,O18P4Zr4,4.1099,64,5.541964,5.541964,12.03251,90.0,90.0,105.044
11548,Ge4Mg8O16,3.3538,62,4.973934,6.101963,10.42931,90.0,90.0,90.0
11549,Mo2Na4O8,4.0127,70,8.307288,7.208726,6.191351,76.20318,57.42871,46.36811
11550,C32O16S8,1.5503,29,6.227936,10.28308,14.41477,90.0,90.0,90.0
11551,C2Ca2O6,4.9964,167,6.458365,6.458365,6.458365,46.06987,46.06987,46.06987
11552,F8O8S4,5.8814,92,5.360088,5.360088,12.00491,90.0,90.0,90.0
11553,As2Cu2O7,0.9756,12,5.5691109999999995,5.5691109999999995,4.997872,75.63834,75.63834,97.04281
11554,Ba2F2I2,4.0153,129,4.700414,4.700414,8.174708,90.0,90.0,90.0
11555,H16N4S16,0.2757,12,10.25807,10.25807,13.12872,51.361580000000004,51.361580000000004,67.70311
11556,Cs6Fe2O5,1.4558,12,7.326659,7.326659,7.476211,87.33863,87.33863,117.8044
11557,Ga4K4Sb16,0.28240000000000004,62,4.275022,10.52398,18.15512,90.0,90.0,90.0
11558,F2O2Y2,4.9305,166,6.775967,6.775967,6.775967,32.88232,32.88232,32.88232
11559,B8O14Sn2,3.5539,31,4.28355,4.4961079999999995,10.98433,90.0,90.0,90.0
11560,Ho6Mn6O18,0.14100000000000001,185,5.933786,5.931782,12.50565,90.0,90.0,120.0112
11561,P2Yb1Zn2,0.6293000000000001,164,4.013764,4.013764,6.748877,89.99993,90.00007,120.0015
11562,Cu12Er4Te12,0.5129,31,6.94526,7.662056,12.82735,90.0,90.0,90.0
11563,O18Sc4Se6,4.0713,176,8.396741,8.396986,7.874893,90.0,90.0,120.0005
11564,As4Cd2Ge2,0.0345,122,7.152015,7.152015,7.152015,129.7913,129.7913,73.74058
11565,Cs12H20Mg4,2.5713,130,8.366821,8.366821,12.79788,90.0,90.0,90.0
11566,O14Sn4Ta4,1.6174,227,7.62276,7.62276,7.62276,60.0,60.0,60.0
11567,O3Sr1Ti1,2.2897,221,3.972911,3.972911,3.972911,90.0,90.0,90.0
11568,O8Pb2W2,3.3775,88,7.283013,7.283013,7.283013,135.2251,135.2251,65.18069
11569,Mg2N2Sr1,1.6916,164,3.644224,3.644072,6.3991679999999995,90.00043,90.0,120.0014
11570,Cu2O6V2,0.9148000000000001,148,5.603877,5.603877,5.603877,53.036,53.036,53.036
11571,F8H20N4,6.9343,53,3.667725,8.198613,8.454781,90.0,90.0,90.0
11572,Ba9O24P6,5.1457,166,5.691506,5.691506,21.35043,90.0,90.0,120.0
11573,Ca2O6Si2,3.6285,140,5.114359,5.114359,5.114359,120.4152,120.4152,89.28232
11574,Be4O7Te1,1.2905,216,5.410138,5.410138,5.410138,60.0,60.0,60.0
11575,N2Te1U2,0.8517,139,7.072429,7.072429,7.072429,147.1667,147.1667,47.11699
11576,Bi12O20Si1,2.4164,197,8.89161,8.89161,8.89161,109.4712,109.4712,109.4712
11577,Fe4K12O8,1.2873999999999999,92,6.183068,6.183068,14.63469,90.0,90.0,90.0
11578,F3Ge1In1,1.4443000000000001,221,4.476039,4.476039,4.476039,90.0,90.0,90.0
11579,Hg4O12Te4,2.2504,2,6.311372,7.652425,7.721025,84.26027,65.50463,87.88205
11580,C4O8Sn2,2.6539,15,5.995884,5.995884,8.421565,60.44571,60.44571,57.07929
11581,Mo4O24Y8,2.0948,15,9.988992,9.988992,5.416607,74.81424,74.81424,68.02248
11582,Li2Nb2O4,1.6572,194,2.934814,2.934814,10.553090000000001,90.0,90.0,120.0003
11583,K4O12Zr5,3.1804,164,5.901568,5.901561,10.58915,90.00067,89.99998,120.0002
11584,In8Rb8Se16,1.5718,15,8.289248,8.289248,16.51045,82.79124,82.79124,89.9924
11585,Bi1Ca3N1,0.3835,221,4.918205,4.918205,4.918205,90.0,90.0,90.0
11586,B2La2O6,4.3992,11,5.14887,4.255526,6.427737,71.91182,90.0,90.0
11587,Al2La2O6,3.6999,167,5.418067,5.418067,5.418067,60.20061,60.20061,60.20061
11588,Ni4O16Sb8,1.9347,135,8.480681,8.480681,6.059652,90.0,90.0,90.0
11589,H12Li8Ru2,3.0362,167,5.701626,5.701626,5.701626,90.17857,90.17857,90.17857
11590,Br6Cs2Ti2,1.6006,194,7.823808,7.823808,6.858315,90.0,90.0,119.9999
11591,Cl4Co1Li2,2.8209,65,6.388539,6.388539,3.58028,90.0,90.0,110.4488
11592,Al8Ca2O14,4.0122,15,7.899161,7.899161,5.494091,76.323,76.323,69.20198
11593,Al4Ba2Te8,1.544,125,8.698774,8.698774,6.754074,90.0,90.0,90.0
11594,Bi1Ir1Zr1,0.42110000000000003,216,4.564325,4.564325,4.564325,60.0,60.0,60.0
11595,Mg8O16Si4,4.5022,74,7.691461,7.691461,7.691461,135.997,114.2499,82.52918
11596,Li2Nb2O6,3.439,161,5.547931,5.547931,5.547931,55.92723,55.92723,55.92723
11597,Ba2Hf2N4,1.2564,129,4.148755,4.148755,8.494146,90.0,90.0,90.0
11598,O14Sr2V6,2.0668,59,5.372784,5.561858,10.60066,90.0,90.0,90.0
11599,Cs16S44Ta8,1.8293,29,8.187487,14.27313,18.97174,90.0,90.0,90.0
11600,K16P8Se24,1.8868,14,12.61364,8.948143,14.04419,88.80742,90.0,90.0
11601,Ba1O3Ti1,2.1364,99,4.058485,4.063289,4.058485,90.0,90.0,90.0
11602,O3Sr1Ti1,2.2898,221,3.972803,3.972803,3.972803,90.0,90.0,90.0
11603,Al8Be4O16,6.1314,62,4.4603,5.525283,9.49458,90.0,90.0,90.0
11604,O3Pb1V1,1.1492,99,3.834755,3.834755,4.932749,90.0,90.0,90.0
11605,Cl8O8Pb12,2.4443,62,5.955783,9.877776,12.12201,90.0,90.0,90.0
11606,Ge1Os1Sc2,0.0639,216,4.561544,4.561544,4.561544,60.0,60.0,60.0
11607,Ba2F8Zn2,5.7321,36,7.623889,7.623889,5.882908,90.0,90.0,147.8867
11608,Ca4Er8S16,1.5607,62,3.877897,12.9207,13.10058,90.0,90.0,90.0
11609,Cu2In2S4,0.4042,122,6.854991,6.854991,6.854991,132.0299,132.0299,70.18188
11610,Ba4Dy8Se16,1.374,62,4.218057,12.86326,15.22989,90.0,90.0,90.0
11611,Ba4Cu10F28,1.9301,15,9.811509,9.811509,10.51795,64.68315,64.68315,40.00666
11612,C4O12Rb8,3.4407,14,10.27916,5.981643,7.464166,82.99531,90.0,90.0
11613,Br2Cr2S2,0.632,59,3.590995,4.843805,8.17906,90.0,90.0,90.0
11614,Cu4O4Rb4,1.453,139,7.405048,7.405048,7.405048,99.05399,99.05399,133.2568
11615,Cd4O12V4,0.44820000000000004,62,5.3348510000000005,5.382085,7.767906,90.0,90.0,90.0
11616,Cl7Cs3Mg2,4.3876,139,14.1344,14.1344,14.1344,158.9891,158.9891,29.88532
11617,Al8F40Sr8,6.9469,79,10.81406,10.81406,10.81406,96.41721,96.41721,140.9381
11618,Co2Na6O6,1.9963000000000002,2,5.770642,5.923048,6.393591,115.5538,89.43663,94.72196
11619,Cl6Cs2Pb1,1.4319,225,7.664511,7.664511,7.664511,60.0,60.0,60.0
11620,Cl4K4O16,5.5292,62,5.795498,7.419517,9.038553,90.0,90.0,90.0
11621,Cs12O56Ta20,3.8882,55,7.526109,7.553037,26.71927,90.0,90.0,90.0
11622,O72P24Y8,5.6741,148,13.05036,13.05015,13.05045,110.4713,110.4733,110.4706
11623,Bi4Mn4O12,0.2783,9,5.639743,5.639743,10.0136,72.09325,72.09325,60.82248
11624,Ca1H2O2,4.1517,164,3.615696,3.615694,4.886163,90.00425,89.99576,120.0018
11625,Ba3Nb2O8,4.4613,166,8.009809,8.009768,8.009809,45.28217,45.2828,45.28217
11626,O16Sn8Ti4,1.4701,135,8.711414,8.711414,6.100527,90.0,90.0,90.0
11627,Ag16S32Sn12,0.429,213,11.02251,11.02251,11.02251,90.0,90.0,90.0
11628,Ca4O14Sb4,0.19010000000000002,227,7.344242,7.344242,7.344242,60.0,60.0,60.0
11629,Li2Mn2O8,1.5055,63,5.064496,5.064496,6.449353,90.0,90.0,113.3864
11630,Co1Ge1Nb1,1.0576,216,4.002103,4.002103,4.002103,60.0,60.0,60.0
11631,Ca4Mn4O12,0.3891,62,5.411073,5.331363,7.566605,90.0,90.0,90.0
11632,Er2O8P2,5.9267,141,5.739805,5.739805,5.739805,105.9447,105.9447,116.781
11633,C12La2N18,3.6888,63,7.21653,7.21653,10.70208,90.0,90.0,112.6928
11634,Co4O12Se4,3.1495,62,5.089582,6.003632,7.713046,90.0,90.0,90.0
11635,I16Li8Zn4,3.3995,62,7.034182,8.663705,14.94068,90.0,90.0,90.0
11636,O12Pb6S2,2.9375,2,7.491849,5.892506,8.357966,91.44819,104.514,91.63574
11637,F20K2Tb6,6.9647,225,8.297274,8.297274,8.297274,60.0,60.0,60.0
11638,Hg1Na2O2,1.6599,139,7.188738,7.188738,7.188738,152.1635,152.1635,39.77451
11639,C1K4O4,2.2975,215,5.4118829999999996,5.4118829999999996,5.4118829999999996,90.0,90.0,90.0
11640,Ca8Fe8O20,0.6024,62,5.65857,5.535529,14.88795,90.0,90.0,90.0
11641,Co8O16Si4,3.2419000000000002,62,4.833837,6.066137,10.3815,90.0,90.0,90.0
11642,Na2Nb2Se4,0.522,194,3.580031,3.58001,15.04301,90.0,90.0,120.0002
11643,Ga2La2O6,3.3933,167,5.538456,5.538456,5.538456,60.75904,60.75904,60.75904
11644,Ge4Mg4N8,2.5895,33,5.22801,5.558509,6.667771,90.0,90.0,90.0
11645,I2Li2O6,3.6783,173,5.552256,5.55231,5.267662,90.0,90.0,120.0011
11646,F3Hg1In1,0.5033,221,4.344873,4.344873,4.344873,90.0,90.0,90.0
11647,B1O4P1,7.2783,82,4.589705,4.589705,4.589705,122.3436,122.3436,85.98655
11648,Cu1Li2O2,0.9007000000000001,71,5.253845,5.253845,5.253845,148.0659,138.4923,53.30721
11649,Ba8Li4Si12,0.09390000000000001,70,12.40157,10.71912,8.787152,78.26481,57.80818,43.92701
11650,Bi12Ge1O20,2.4482,197,8.931852,8.931852,8.931852,109.4712,109.4712,109.4712
11651,Mn8O20Pr4,1.094,55,5.843478,7.672785,8.755924,90.0,90.0,90.0
11652,Pd2S8U4,0.7149,43,8.610095,7.934017,6.881023,70.65826,60.39712,48.94462
11653,Cs2I6Pt1,0.6116,225,8.306282,8.306282,8.306282,60.0,60.0,60.0
11654,C4Cd2N4,6.142,215,6.461539,6.461539,6.461539,90.0,90.0,90.0
11655,Br16Rb8Zn4,3.8767,33,7.664876,7.410453,20.73972,90.0033,90.0,90.0
11656,Nb2Nd6O14,3.0579,63,6.704174,6.704174,7.746498,90.0,90.0,111.1738
11657,Co1Ga2S4,2.0849,82,6.473371,6.473371,6.473371,130.9656,130.9656,71.86767
11658,Br3Li7O2,4.2278,139,11.2791,11.2791,11.2791,159.6798,159.6798,28.89189
11659,K12Nb4Se16,1.9661,62,9.757642,9.889286,11.36015,90.0,90.0,90.0
11660,Cd1F6Sn1,3.5813,148,5.930781,5.930781,5.930781,54.7144,54.7144,54.7144
11661,Ag1Ca1F3,0.051500000000000004,221,4.473221,4.473221,4.473221,90.0,90.0,90.0
11662,Cr3Cs3F12,2.5119,189,9.830021,9.830021,3.963461,90.0,90.0,120.0
11663,O3Pb1Ti1,2.1815,99,3.977101,3.977101,4.164853,90.0,90.0,90.0
11664,Cd4O8Si2,1.5794000000000001,70,7.797869,6.723154,5.845516,76.33866,56.90708,46.75426
11665,Al4Cl16Na4,5.156,19,6.278134,10.02855,10.55413,90.0,90.0,90.0
11666,Bi4Sn1Te7,0.386,164,4.47454,4.474545,24.63317,89.99621,90.0037,119.9981
11667,Ba1O3Ti1,2.1302,221,4.061492,4.061492,4.061492,89.99282,89.99282,89.99282
11668,Ni4O8Si2,2.9464,227,5.740059,5.740059,5.740059,60.0,60.0,60.0
11669,B6K6O12,4.1336,167,7.866193,7.866193,7.866193,110.3699,110.3699,110.3699
11670,B4Co6O12,2.8486000000000002,58,4.569102,5.527988,8.515316,90.0,90.0,90.0
11671,As1In1Rb2,0.4541,225,5.929786,5.929786,5.929786,60.0,60.0,60.0
11672,Cr2La2O6,2.0795,167,5.544978,5.544978,5.544978,61.25729,61.25729,61.25729
11673,F18Na6Si3,6.9792000000000005,150,9.025516,9.025516,5.111722,90.00282,89.99718,120.0065
11674,B12Ho8O30,5.5034,15,6.25753,6.25753,18.88317,83.88776,83.88776,41.17307