,full_formula,band_gap,spacegroup.number,structure.lattice.a,structure.lattice.b,structure.lattice.c,structure.lattice.alpha,structure.lattice.beta,structure.lattice.gamma
4451,Al1As1,1.5011,216,4.054029,4.054029,4.054029,60.0,60.0,60.0
4452,As8Ir4,0.7505000000000001,14,6.130018,6.113519,6.218231,66.78555,90.0,90.0
4453,F24Te4,4.3747,62,5.315518,9.133413000000001,10.1858,90.0,90.0,90.0
4454,Cl32In32,2.1645,198,12.51316,12.51316,12.51316,90.0,90.0,90.0
4455,O8Ti4,2.8234,60,4.613084,5.025932,5.593643,90.0,90.0,90.0
4456,I32Si8,2.8168,205,12.92466,12.92466,12.92466,90.0,90.0,90.0
4457,Br32Si8,4.1012,205,12.05354,12.05354,12.05354,90.0,90.0,90.0
4458,Br1K1,3.9233000000000002,221,4.023176,4.023176,4.023176,90.0,90.0,90.0
4459,Ba1S1,2.1517,225,4.565924,4.565924,4.565924,60.0,60.0,60.0
4460,Mg1O1,4.4694,225,3.007222,3.007222,3.007222,60.0,60.0,60.0
4461,Mg1O1,4.4681,225,3.007358,3.007358,3.007358,60.0,60.0,60.0
4462,O8Pb6,1.0154,55,3.507025,7.054817,10.15228,90.0,90.0,90.0
4463,Ca6P6,0.3378,189,7.659942,7.659942,5.72051,90.0,90.0,120.0002
4464,Ag2N6,2.2327,72,5.135777,5.135777,5.135777,111.8959,109.8378,106.7216
4465,Rb2Te5,0.2536,12,7.506651,7.506651,5.898894,68.39311,68.39311,77.41107
4466,Cd1S1,0.4118,225,3.875073,3.875073,3.875073,60.0,60.0,60.0
4467,I16Nb4,0.5947,36,8.16856,8.16856,15.21768,90.0,90.0,122.8437
4468,O4Ti2,2.5268,141,5.560656,5.560656,5.560656,139.2569,139.2569,58.98338
4469,Pb1S1,0.4655,225,4.246235,4.246235,4.246235,60.0,60.0,60.0
4470,Pt2S2,0.8969,131,3.532364,3.532364,6.116325,90.0,90.0,90.0
4471,O8V4,0.18530000000000002,12,6.463131,6.463131,6.494149,73.72826,73.72826,33.57284
4472,Cd2S2,1.2629000000000001,186,4.190479,4.190137,6.805421,90.0,90.0,120.0027
4473,S12Sb8,1.2866,62,3.873078,11.25528,12.09467,90.0,90.0,90.0
4474,Mg6O6,2.8856,223,5.638229,5.638229,5.638229,90.0,90.0,90.0
4475,F3Sc1,6.6056,155,4.114988,4.114988,4.114988,89.85268,89.85268,89.85268
4476,O24Yb16,0.40490000000000004,206,8.994206,8.994206,8.994206,109.4712,109.4712,109.4712
4477,Pb1Se1,0.398,225,4.386715,4.386715,4.386715,60.0,60.0,60.0
4478,Ni2S2,0.2,194,3.529567,3.529567,5.648941,90.0,90.0,120.0039
4479,O16Ti8,2.5700000000000003,61,5.2640139999999995,5.5444189999999995,9.354711,90.0,90.0,90.0
4480,Ge2O4,1.1834,136,4.483347,4.483347,2.910304,90.0,90.0,90.0
4481,C2N4,4.6337,113,3.313,3.313,4.748,90.0,90.0,90.0
4482,O8Si4,5.5254,92,5.061018,5.061018,7.024658,90.0,90.0,90.0
4483,S12Sb8,1.2825,62,3.870268,12.13755,11.23537,90.0,90.0,90.0
4484,O16Ti8,2.5693,61,5.264767,5.545848,9.353068,90.0,90.0,90.0
4485,O6Si3,5.5369,180,5.102775,5.102775,5.594115,90.0,90.0,120.0
4486,N36W2,1.8939,147,9.835877,9.835709,7.543933,90.00789,89.99926,120.0085
4487,Bi2I6,2.5039,148,8.720862,8.721382,8.720572,53.03181,53.0316,53.03676
4488,O36Si18,5.624,71,12.54655,12.54655,12.54655,144.9062,110.3251,80.47032
4489,Cd7I14,2.3855,156,4.312127,4.312098,50.83923,90.00214,90.0,120.0002
4490,Mg24P16,1.6031,206,10.44663,10.44663,10.44663,109.4712,109.4712,109.4712
4491,N4Th3,1.4555,166,9.763096,9.763096,9.763096,23.63879,23.63879,23.63879
4492,Al1N1,4.4346,225,2.8761479999999997,2.8761479999999997,2.8761479999999997,60.0,60.0,60.0
4493,N4O10,0.6314000000000001,194,5.603474,5.603474,6.599463,90.0,90.0,120.0255
4494,B4N4,5.7544,62,2.591114,4.288417,4.889261,90.0,90.0,90.0
4495,In12Ru4,0.17550000000000002,136,7.049878,7.049878,7.283445,90.0,90.0,90.0
4496,Br4S4,2.13,41,4.680707,4.680707,14.38113,90.0,90.0,108.4032
4497,Mg3Sb2,0.1971,164,4.605492,4.604789,7.272121,89.9956,90.0,120.0051
4498,Rb4Te2,1.38,194,6.140875,6.140875,8.121557,90.0,90.0,119.9937
4499,Cl6Pr2,3.028,176,7.527918,7.523739,4.314841,90.0,90.0,120.0068
4500,As16S16,1.055,14,11.97922,7.96817,11.07362,78.95133,90.0,90.0
4501,Cd6I12,2.3817,156,4.313502,4.313478,43.62474,90.00199,90.0,120.0002
4502,Cl6Ti2,2.476,162,6.390577,6.384991,6.391649,90.09481,89.81055,120.0289
4503,Al1Sb1,1.2272,216,4.407902,4.407902,4.407902,60.0,60.0,60.0
4504,Ni1O1,1.7944,225,2.990118,2.990118,2.990118,60.0,60.0,60.0
4505,Br6Ti2,2.3469,2,6.658965,6.763412,7.663371,64.56774,65.04298,60.51608
4506,O16V8,0.6778000000000001,69,7.065652,7.065651,7.062177,100.6181,100.6182,129.1721
4507,O8Si4,5.3668,194,5.276646,5.276646,8.61027,90.0,90.0,119.9933
4508,Fe2P4,0.907,58,2.713289,4.935233,5.695689,90.0,90.0,90.0
4509,Bi1Li3,0.3695,225,4.757523,4.757523,4.757523,60.0,60.0,60.0
4510,O8Si4,5.5319,92,5.055554,5.055554,7.058006,90.0,90.0,90.0
4511,Pb1Te1,0.7988000000000001,225,4.636535,4.636535,4.636535,60.0,60.0,60.0
4512,Co4Sb12,0.15280000000000002,204,7.872902,7.872902,7.872902,109.4712,109.4712,109.4712
4513,C8K8,3.2595,142,9.12064,9.12064,9.12064,130.3775,130.3775,72.80406
4514,Ge1Te1,0.289,166,4.258467,4.258467,4.258467,59.66516,59.66516,59.66516
4515,Ca1S1,2.3812,225,4.041883,4.041883,4.041883,60.0,60.0,60.0
4516,I16Ta4,0.7512000000000001,2,7.649789,11.14225,11.27112,98.41847,88.4403,105.4625
4517,Pb4S4,2.0492,36,4.249542,4.249542,33.95262,90.0,90.0,89.9604
4518,P8Th6,0.1328,220,7.636065,7.636065,7.636065,109.4712,109.4712,109.4712
4519,Ge2O4,1.1711,136,4.478874,4.478874,2.915278,90.0,90.0,90.0
4520,Sb2Te3,0.06860000000000001,166,10.62017,10.62017,10.62017,23.5643,23.5643,23.5643
4521,Br1K1,3.8927,221,4.036489,4.036489,4.036489,90.0,90.0,90.0
4522,Cl1K1,5.0398,225,4.515786,4.515786,4.515786,60.0,60.0,60.0
4523,O6V4,0.0291,167,5.560886,5.560886,5.560886,54.78326,54.78326,54.78326
4524,Ge3O6,3.1558,152,5.065399,5.065399,5.762152,90.0,90.0,120.0
4525,Cd9I18,2.3879,156,4.313289,4.313257,65.35433,90.00282,90.0,120.0002
4526,Al2N2,4.0672,186,3.126707,3.126787,5.012464,90.0,90.0,119.9992
4527,Mg1O1,4.4696,225,3.007201,3.007201,3.007201,60.0,60.0,60.0
4528,Ag2N6,2.3008,72,5.149255,5.149255,5.149255,113.4919,108.286,106.7155
4529,N3Na1,0.8607,12,4.541459,4.541459,6.209901,55.49978,55.49978,79.87605
4530,N6Tl2,1.8108,140,5.839817,5.839817,5.839817,114.1644,114.1644,100.4447
4531,Ge4Se8,1.5152999999999999,122,5.981863,5.981863,9.762269,90.0,90.0,90.0
4532,Mg1S1,2.7709,225,3.6929179999999997,3.6929179999999997,3.6929179999999997,60.0,60.0,60.0
4533,O4Si2,5.0089,136,4.231824,4.231824,2.693455,90.0,90.0,90.0
4534,Cr4O6,2.3741,167,5.45418,5.45418,5.45418,55.60917,55.60917,55.60917
4535,O48Si24,5.5183,19,5.072105,8.43405,26.96555,90.0,90.0,90.0
4536,Cl1Na1,5.0622,225,4.003751,4.003751,4.003751,60.0,60.0,60.0
4537,Ce6F18,4.8765,182,7.228443,7.228417,7.190705,90.0,90.0,120.0001
4538,Ru2Sb4,0.16060000000000002,58,3.216165,6.000328,6.758292,90.0,90.0,90.0
4539,F6V2,1.1257,167,5.485265,5.485265,5.485265,57.0513,57.0513,57.0513
4540,S2Zn2,2.7471,186,3.794387,3.794063,6.21646,90.0,90.0,120.0028
4541,F4Mn2,2.5684,136,4.973528,4.973528,3.345991,90.0,90.0,90.0
4542,P8Pt4,0.8779,205,5.740289,5.740289,5.740289,90.0,90.0,90.0
4543,Be1S1,3.1433,216,3.447033,3.447033,3.447033,60.0,60.0,60.0
4544,Mo4O12,1.8407,62,3.731764,3.956245,15.0128,90.0,90.0,90.0
4545,Fe2P4,0.9089,58,2.713651,4.933429,5.696422,90.0,90.0,90.0
4546,Ga4S4,1.8344,194,3.617207,3.617207,16.357,90.0,90.0,120.0014
4547,Pb1Te1,0.7989,225,4.636563,4.636563,4.636563,60.0,60.0,60.0
4548,O4Ti2,2.2671,136,4.67192,4.67192,3.023609,90.0,90.0,90.0
4549,O14Ti8,1.6687,2,7.030782,6.199518,10.93894,104.8881,87.6339,109.1543
4550,F3Sc1,6.5707,221,4.123638,4.123638,4.123638,90.0,90.0,90.0
4551,Dy1N1,0.049800000000000004,225,3.473496,3.473496,3.473496,60.0,60.0,60.0
4552,O24Y16,4.0563,206,9.268971,9.268971,9.268971,109.4712,109.4712,109.4712
4553,Be1O1,8.2161,225,2.577839,2.577839,2.577839,60.0,60.0,60.0
4554,Be1O1,6.852,216,2.704187,2.704187,2.704187,60.0,60.0,60.0
4555,B8N8,3.4888,9,9.427274,3.294084,4.348531,74.05205,89.99995,89.99996
4556,C2F8,9.084,15,4.880094,4.880094,8.656433,63.93045,63.93045,54.04488
4557,Ru16Si24,0.5819,60,5.552007,8.986809,11.09101,90.0,90.0,90.0
4558,S1Zn1,2.6834,216,3.796817,3.796817,3.796817,60.0,60.0,60.0
4559,Ba4H8,2.8558,62,4.154932,6.815829,7.849715,90.0,90.0,90.0
4560,O24Pr16,2.9112999999999998,206,9.771571999999999,9.771571999999999,9.771571999999999,109.4712,109.4712,109.4712
4561,Os2P4,0.9193,58,2.947834,5.118041,5.943727,90.0,90.0,90.0
4562,Eu1Se1,0.906,225,4.432744,4.432744,4.432744,60.0,60.0,60.0
4563,Ca2Cl4,5.4449,58,4.219021,6.247142,6.551171,90.0,90.0,90.0
4564,O4Sn4,1.7677,36,3.610336,3.610336,12.60418,90.0,90.0,101.762
4565,Se6Zr2,0.3458,11,3.789677,5.474434,9.859744,82.74936,90.0,90.0
4566,Hf1O2,3.8043,225,3.588698,3.588698,3.588698,60.0,60.0,60.0
4567,In16O24,1.1149,206,8.867174,8.867174,8.867174,109.4712,109.4712,109.4712
4568,Al1N1,3.3058,216,3.112384,3.112384,3.112384,60.0,60.0,60.0
4569,Rb4S6,1.304,36,6.506384,6.506384,7.988187,90.0,90.0,108.4212
4570,Ga4Se4,0.8122,194,3.814365,3.814365,16.35619,90.0,90.0,119.9958
4571,F4Fe2,2.6276,136,4.800875,4.800875,3.328982,90.0,90.0,90.0
4572,Ge16S32,2.1594,142,12.50473,12.50473,12.50473,125.8837,125.8837,80.07931
4573,As16S16,2.3802,14,18.6713,7.645403,9.79578,82.7771,90.0,90.0
4574,Cl1Na1,5.0569,225,4.005602,4.005602,4.005602,60.0,60.0,60.0
4575,Mg2Si1,0.23520000000000002,225,4.490868,4.490868,4.490868,60.0,60.0,60.0
4576,O8Zr4,3.4785,14,5.283567,5.21765,5.40317,80.37615,90.0,90.0
4577,O6Te2,1.1438,167,5.286679,5.286679,5.286679,57.03775,57.03775,57.03775
4578,Br6Ir2,1.9975,12,6.452248,6.452248,6.824813,81.03576,81.03576,119.9513
4579,Er16O24,3.9699,206,9.133013,9.133013,9.133013,109.4712,109.4712,109.4712
4580,Ge1Mg2,0.1912,225,4.526496,4.526496,4.526496,60.0,60.0,60.0
4581,Gd16O24,3.6162,206,9.419949,9.419949,9.419949,109.4712,109.4712,109.4712
4582,O6Ti3,1.1811,189,5.394872,5.394811,3.151375,90.0,90.0,120.0004
4583,Be48P32,0.14850000000000002,142,12.50181,12.50181,12.50181,131.6496,131.6496,70.78302
4584,Ni1O1,1.7915,225,2.987559,2.987559,2.987559,60.05269,60.05269,60.05269
4585,S2Zn2,2.7383,186,3.796391,3.796391,6.219381,90.0,90.0,119.9967
4586,Al4O6,5.855,167,5.178785,5.178785,5.178785,55.31296,55.31296,55.31296
4587,O8Si4,5.5244,92,5.065198,5.065198,7.078975,90.0,90.0,90.0
4588,Ir4Sb8,0.36250000000000004,14,6.6133,6.668284,6.763156,64.84639,90.0,90.0
4589,O24Sc16,4.276,206,8.699625,8.699625,8.699625,109.4712,109.4712,109.4712
4590,Bi1F3,3.9499,225,4.093873,4.093873,4.093873,60.0,60.0,60.0
4591,N1Sc1,0.44970000000000004,225,3.242749,3.242749,3.242749,60.0,60.0,60.0
4592,In4Se4,0.43010000000000004,194,4.074454,4.074454,17.35293,90.0,90.0,120.0005
4593,Cl6Ti2,2.5131,148,7.331056,7.331056,7.331056,51.83432,51.83432,51.83432
4594,O8Si4,0.1282,1,5.865684,8.905848,5.197283,125.9847,90.33583,89.12309
4595,O16Sb8,1.8863,52,5.590343,4.902476,11.938320000000001,90.0,90.0,90.0
4596,F18La6,7.6728000000000005,165,7.295754,7.295754,7.468227,89.99982,90.00018,120.0015
4597,Ge32K32,0.9468000000000001,218,12.84514,12.84514,12.84514,90.0,90.0,90.0
4598,Be2C1,1.1649,225,3.060451,3.060451,3.060451,60.0,60.0,60.0
4599,I1K1,3.2862,221,4.319115,4.319115,4.319115,90.0,90.0,90.0
4600,Cd15I30,2.2565,156,4.313601,4.313584,109.2862,90.0019,90.0,120.0001
4601,Cd13I26,2.2568,156,4.313698,4.313667,94.25858,90.00261,90.0,120.0002
4602,Nb16O40,1.4641,139,14.72146,14.72146,14.72146,90.97824,90.97824,164.9842
4603,Ge4Se4,0.40090000000000003,62,3.817404,4.64128,12.5981,90.0,90.0,90.0
4604,Se2Sn1,0.5516,164,3.9323069999999998,3.932325,6.399776,90.0,90.00976,120.0002
4605,Ag8S4,0.5177,14,7.036134,4.342385,7.905072,79.15998,90.0,90.0
4606,Mn1S1,0.8196,225,3.736041,3.736041,3.736041,60.0,60.0,60.0
4607,Sb8Zn8,0.166,61,6.224409,7.816238,8.178087,90.0,90.0,90.0
4608,Ca1S1,2.3838,225,4.043544,4.043544,4.043544,60.0,60.0,60.0
4609,F12Tl4,1.2674,62,5.03573,5.912111,7.253634,90.0,90.0,90.0
4610,S4Si2,3.0329,72,6.768195,6.768195,6.768195,131.2765,126.099,75.58901
4611,B2N2,4.4656,194,2.5134090000000002,2.513141,7.673283,90.0,90.0,120.0035
4612,Br6Fe2,1.5432000000000001,148,7.610081,7.61021,7.610059,51.18218,51.18294,51.18432
4613,Fe2Se2,0.493,129,4.250171,4.250171,5.48661,90.0,90.0,89.95273
4614,F18La6,7.6578,165,7.302362,7.302362,7.468095,89.99975,90.00025,120.001
4615,Mg2Si1,0.2326,225,4.487488,4.487488,4.487488,60.0,60.0,60.0
4616,Se20U12,0.641,62,7.921729,8.550313,12.6765,90.0,90.0,89.9993
4617,O6Si3,5.7226,154,4.969214,4.969151,5.468687,90.00036,89.9993,119.9989
4618,Ni1O1,1.7916,225,2.98875,2.98875,2.98875,60.0,60.0,60.0
4619,O24Y16,4.0626,206,9.264676,9.264676,9.264676,109.4712,109.4712,109.4712
4620,Co6O8,0.30910000000000004,227,5.9611149999999995,5.9611149999999995,5.9611149999999995,60.0,60.0,60.0
4621,O4Pb2,0.023700000000000002,136,5.06713,5.06713,3.457813,90.0,90.0,90.0
4622,B1N1,4.4562,216,2.563506,2.563506,2.563506,60.0,60.0,60.0
4623,O8Si4,5.3773,20,5.257625,5.257625,8.540281,90.0,90.0,120.2416
4624,B2N2,4.4948,194,2.5128269999999997,2.512541,7.820657,90.0,90.0,120.0038
4625,O6Si3,5.7201,154,4.970317,4.970254,5.470064,90.00036,89.99929,119.9989
4626,H8O8,4.4513,92,4.140868,4.140868,7.789955,90.0,90.0,90.0
4627,O10V4,2.1357,59,3.615826,4.607223,11.58012,90.0,90.0,90.0
4628,K16Sn36,1.1019,14,8.518096,14.578240000000001,16.81168,85.22453,90.0,90.0
4629,S12Sb8,1.282,62,3.870154,11.23331,12.1545,90.0,90.0,90.0
4630,O16Si8,5.519,56,4.749124,8.185134,8.597332,90.0,90.0,90.0
4631,Pt4Yb4,0.010100000000000001,62,4.380702,5.649124,7.304762,90.0,90.0,90.0
4632,Al4O6,5.8491,167,5.180625,5.180625,5.180625,55.3,55.3,55.3
4633,O6V4,0.0327,167,5.559409,5.559409,5.559409,54.79738,54.79738,54.79738
4634,Te1Zn1,1.4766,216,4.341505,4.341505,4.341505,60.0,60.0,60.0
4635,F2Tl2,3.0026,129,3.85388,3.85388,6.382644,90.0,90.0,90.0
4636,I1Rb1,3.3481,221,4.486521,4.486521,4.486521,90.0,90.0,90.0
4637,Sn1Te1,0.0746,225,4.562539,4.562539,4.562539,60.0,60.0,60.0
4638,Hf4O8,4.013,14,5.194676,5.141973,5.324633,80.31335,90.0,90.0
4639,O4Ti2,2.5474,141,5.573773,5.573773,5.573773,139.3837,139.3837,58.7903
4640,Ba2C4,1.9074,15,4.4932300000000005,4.4932300000000005,8.190053,75.02955,75.02955,64.54974
4641,F12I4,1.7287,62,4.751986,7.190999,10.48603,90.0,90.0,90.0
4642,Os4Se8,0.2409,205,6.022292,6.022292,6.022292,90.0,90.0,90.0
4643,Ho2P10,0.0858,11,9.423003,4.938456,5.346035,77.57156,90.0,90.0
4644,Br2V1,2.6259,164,3.8747,3.8747,6.652772,90.00877,89.99123,120.0053
4645,Li2Te1,2.4966,225,4.6146650000000005,4.6146650000000005,4.6146650000000005,60.0,60.0,60.0
4646,Se1Zn1,1.6966999999999999,216,4.010939,4.010939,4.010939,60.0,60.0,60.0
4647,Mg2Te2,2.3633,186,4.597514,4.597514,7.531308,90.0,90.0,120.0032
4648,Hg3S3,1.5817,154,4.383685,4.383981,9.706541,89.9872,90.01796,120.0258
4649,Eu1Te1,0.7896000000000001,225,4.690931,4.690931,4.690931,60.0,60.0,60.0
4650,Co2S2,0.2771,194,3.574594,3.574594,5.85849,90.0,90.0,120.0004
4651,Br2In2,1.1412,63,6.659745,6.659745,4.635741,90.0,90.0,139.6425
4652,Ag4O6,0.3951,43,8.431413,6.792686,5.66348,84.68518,53.33846,41.97636
4653,P8S20,2.59,2,9.783017,9.871836,9.909852,93.10037,100.6932,109.8703
4654,Lu1N1,0.1988,225,3.34651,3.34651,3.34651,60.0,60.0,60.0
4655,O8Si4,5.4406,182,5.112055,5.111892,8.632956,90.0,90.0,120.0011
4656,N2Y2,0.6669,194,4.039241,4.039241,4.9298079999999995,90.0,90.0,119.9802
4657,Ru4Te8,0.3168,205,6.479978,6.479978,6.479978,90.0,90.0,90.0
4658,Br6U2,2.5444,11,8.119125,8.058945,4.503482,90.0,90.0,119.9465
4659,O32Si16,4.9845,85,11.77371,11.77371,4.382118,90.0,90.0,90.0
4660,Al16O24,4.8347,33,4.883537,8.397208,9.026336,90.0,90.0,90.0
4661,S2Sn1,1.3673,164,3.7518000000000002,3.751613,6.665165,89.99822,90.0,120.0016
4662,Pd8S8,0.274,84,6.516656,6.516656,6.679798,90.0,90.0,90.0
4663,Ba10Sb8,0.2541,64,10.10426,10.10426,9.19454,90.0,90.0,126.1273
4664,Mn4Se8,0.6972,205,6.074718,6.074718,6.074718,90.0,90.0,90.0
4665,Bi4F12,4.686,62,5.040768,6.546011,7.119121,90.0,90.0,90.0
4666,Mo2S4,1.1885,194,3.204231,3.204651,13.42516,90.0,90.0,119.9957
4667,Mn1Se1,0.39840000000000003,225,3.915522,3.915522,3.915522,60.0,60.0,60.0
4668,Cd8I16,2.3995,156,4.313451,4.313431,58.17314,90.00164,90.0,120.0002
4669,O4Si2,5.0078,136,4.233693,4.233693,2.692789,90.0,90.0,90.0
4670,Ba1C2,1.6124,139,4.792037,4.792037,4.792037,125.1255,125.1255,81.33024
4671,O2Zn2,1.8104,186,3.19384,3.19384,5.148985,90.0,90.0,119.996
4672,O24Si12,5.5207,8,9.254708,9.254708,9.009673,81.29537,81.29537,110.948
4673,O4Zr2,3.882,137,3.644945,3.644945,5.311063,90.0,90.0,90.0
4674,Te1Zn1,1.4738,216,4.342267,4.342267,4.342267,60.0,60.0,60.0
4675,Ge3O6,3.1534,152,5.065911,5.065911,5.762645,90.0,90.0,120.0
4676,As1Ga1,0.2947,216,4.055377,4.055377,4.055377,60.0,60.0,60.0
4677,Mn1S1,0.8199000000000001,225,3.7361139999999997,3.7361139999999997,3.7361139999999997,60.0,60.0,60.0
4678,Mo1S2,1.1517,160,6.822859,6.822859,6.822859,27.11973,27.11973,27.11973
4679,F24Te4,4.3667,62,5.278238,9.084922,10.07798,90.0,90.0,90.0
4680,S12Sb8,1.2825,62,3.8701689999999997,11.23653,12.14694,90.0,90.0,90.0
4681,O4Zr2,3.8628,137,3.644389,3.644389,5.30566,90.0,90.0,90.0
4682,Te2Ti2,0.487,63,4.219581,4.219581,7.000969,90.0,90.0,119.5372
4683,Gd6O9,3.5997,12,7.365579,7.365579,8.822823,79.94002,79.94002,28.1582
4684,S4Tl4,0.6781,140,6.636254,6.636254,6.636254,105.9844,105.9844,116.6954
4685,Br1Cs1,4.2661999999999995,221,4.38323,4.38323,4.38323,90.0,90.0,90.0
4686,Cl6U2,2.6727,11,7.56028,7.597212,4.357876,90.0,90.0,119.88
4687,O24Sc16,4.2751,206,8.701243,8.701243,8.701243,109.4712,109.4712,109.4712
4688,F3Sc1,6.5705,221,4.123668,4.123668,4.123668,90.0,90.0,90.0
4689,P8Rh4,0.2575,14,5.842439,5.775082,5.872674,67.20582,90.0,90.0
4690,Pb1Se1,0.4037,225,4.389506,4.389506,4.389506,60.0,60.0,60.0
4691,Se2V2,0.6985,194,3.8306649999999998,3.830622,6.29891,90.0,90.0,120.0005
4692,Ho1N1,0.0855,225,3.450178,3.450178,3.450178,60.0,60.0,60.0
4693,O68Si34,5.5334,227,14.15015,14.15015,14.15015,60.0,60.0,60.0
4694,C4O8,6.4133,92,5.164381,5.164381,7.379721,90.0,90.0,90.0
4695,Ni4S8,0.5155000000000001,72,4.460147,6.630131,8.200013,90.0,90.0,90.0
4696,Te3Zn3,0.612,181,4.311719,4.311628,9.763198,90.00003,89.99996,120.0025
4697,O70Ti40,1.417,2,7.104602,11.50769,15.4435,92.05563,92.61526,91.98519
4698,C3N4,1.3551,160,4.409443,4.409443,4.409443,65.6569,65.6569,65.6569
4699,Be2O2,7.43,186,2.713059,2.713059,4.401301,90.0,90.0,119.9997
4700,O2Rb2,1.7635,71,5.166541,5.166541,5.166541,130.9593,108.593,91.46884
4701,O2Th1,4.5405,225,4.119783,4.119783,4.119783,60.0,60.0,60.0
4702,O6V4,0.037700000000000004,167,5.55778,5.55778,5.55778,54.84348,54.84348,54.84348
4703,O4Si2,5.0098,136,4.23169,4.23169,2.693443,90.0,90.0,90.0
4704,Ca1F2,7.1317,225,3.897049,3.897049,3.897049,60.0,60.0,60.0
4705,Se4Tl4,0.0941,140,6.80448,6.80448,6.80448,105.9058,105.9058,116.8648
4706,O8Te4,2.8222,92,4.961018,4.961018,7.664446,90.0,90.0,90.0
4707,Fe2Se2,0.5064000000000001,129,4.254558,4.254558,5.459356,90.0,90.0,90.0
4708,O56Si28,5.6271,10,8.559428,12.5784,15.230410000000001,74.06065,90.0,90.0
4709,O4V2,0.7246,136,4.51244,4.51244,3.029665,90.0,90.0,90.0
4710,Na2Te1,2.0577,225,5.163115,5.163115,5.163115,60.0,60.0,60.0
4711,Ce1O2,2.4184,225,3.8851,3.8851,3.8851,60.0,60.0,60.0
4712,Cd8I16,2.4021,156,4.311218,4.311183,58.01973,90.002,90.0,120.0003
4713,O6Si3,5.6896,152,5.010623,5.010683,5.491867,89.99953,90.00097,120.0016
4714,Pd4S8,0.6322,61,5.507584,5.594971,8.135309,90.0,90.0,90.0
4715,F6S1,5.7912,229,5.245529,5.245529,5.245529,109.4712,109.4712,109.4712
4716,O4Sn2,0.026600000000000002,136,4.903933,4.903933,3.302172,90.0,90.0,90.0
4717,O8Si4,5.3874,20,5.251771,5.251771,8.482835,90.0,90.0,120.7926
4718,S24Zn24,2.6927,156,3.798236,3.7981759999999998,74.50427,89.99999,90.0,120.0005
4719,Cd14I28,2.2562,156,4.313936,4.313907,102.0467,90.00175,90.0,120.0002
4720,Se2Sn1,0.5427000000000001,164,3.927627,3.927627,6.417006,90.00549,89.99451,119.9997
4721,O32Si16,5.3821,12,13.48291,13.48327,5.451123,85.05502,85.05387,88.30948
4722,Gd8S12,0.5878,62,3.951459,7.391784,15.36991,90.0,90.0,90.0
4723,Be2O2,7.4656,186,2.709804,2.709804,4.403021,90.0,90.0,120.0
4724,Mn1Se1,0.8271000000000001,216,4.262129,4.262129,4.262129,60.0,60.0,60.0
4725,Cu3N1,0.5235000000000001,221,3.822997,3.822997,3.822997,90.0,90.0,90.0
4726,Mg1S1,2.7694,225,3.69381,3.69381,3.69381,60.0,60.0,60.0
4727,Ir4P8,0.5173,14,5.821754,5.772252,5.879367,68.50838,90.00024,89.99882
4728,B1N1,4.4558,216,2.563806,2.563806,2.563806,60.0,60.0,60.0
4729,O1Zn1,2.1278,225,2.977627,2.977627,2.977627,60.0,60.0,60.0