,full_formula,band_gap,spacegroup.number,structure.lattice.a,structure.lattice.b,structure.lattice.c,structure.lattice.alpha,structure.lattice.beta,structure.lattice.gamma
565,Cd1I2,2.4565,164,4.3127379999999995,4.312714,7.298009,90.00296,90.0,120.0002
566,F18La6,7.7138,185,7.300429,7.300362,7.468153,90.0,90.0,120.0003
567,O8Si4,5.5343,92,5.054405,5.054405,7.058113,90.0,90.0,90.0
568,Al4O6,5.844,167,5.17993,5.17993,5.17993,55.31941,55.31941,55.31941
569,O16Si8,5.54,15,7.234883,7.234883,7.252351,75.40342,75.40342,119.6627
570,N8Si6,4.252,176,7.660425,7.66037,2.924172,90.0,90.0,119.9997
571,I24Pb12,2.355,156,4.651625,4.651678,88.53775,90.00307,90.0,119.9996
572,Co2S2,0.2773,194,3.578965,3.579094,5.848703,90.0,90.0,119.9988
573,I12Pt4,0.3508,15,7.094706,7.094706,13.531600000000001,84.34816000000001,84.34816000000001,121.1009
574,As8O12,3.8947000000000003,14,6.552832,4.976267,12.98981,88.91381,90.0,90.0
575,Mn4S8,1.2336,205,5.648033,5.648033,5.648033,90.0,90.0,90.0
576,S2V2,0.3992,194,3.631456,3.631456,6.108736,90.0,90.0,120.0031
577,Al4O6,5.8596,167,4.807218,4.807218,5.178589,62.34387,62.34387,59.99459
578,Bi2Te3,0.277,166,10.62765,10.62765,10.62765,24.23476,24.23476,24.23476
579,Ce1O2,2.4184,225,3.8851,3.8851,3.8851,60.0,60.0,60.0
580,Fe2P8,1.1907,20,5.730139,5.730139,5.580646,90.0,90.0,127.8758
581,O2Zr1,3.1229,225,3.642606,3.642606,3.642606,60.0,60.0,60.0
582,Ga14Te20,0.8797,155,10.37389,10.37389,10.37389,89.49353,89.49353,89.49353
583,Mn1Se1,0.39840000000000003,225,3.915522,3.915522,3.915522,60.0,60.0,60.0
584,K4P6,0.7047,69,8.606902,8.408046,6.425871,69.46288,66.17865,44.35847
585,O32Si16,5.6233,114,11.58219,11.57766,5.19434,90.0,90.0,90.0
586,Cl20U4,2.2314,14,12.31286,8.035956,11.597480000000001,95.89525,90.0,90.0
587,Pb1S1,0.46530000000000005,225,4.246201,4.246201,4.246201,60.0,60.0,60.0
588,O8Zr4,3.4518,14,5.286737,5.215833,5.393031,80.39643,90.0,90.0
589,Ga1P1,1.6437,216,3.883844,3.883844,3.883844,60.0,60.0,60.0
590,S2Zn2,2.743,186,3.797951,3.7976609999999997,6.214603,90.0,90.0,120.0025
591,Se4Sn4,0.6331,62,4.290694,4.490485,12.0397,90.0,90.0,90.0
592,O4Si2,5.005,136,4.232724,4.232724,2.693631,90.0,90.0,90.0
593,O16Ti8,2.5734,61,5.267228,5.5427800000000005,9.352092,90.0,90.0,90.0
594,Cl36N12,2.1809,62,8.576115,9.995972,17.65612,90.0,90.0,90.0
595,Pd8S8,0.26880000000000004,84,6.515994,6.515994,6.682582,90.0,90.0,90.0
596,Be1S1,3.1433,216,3.447059,3.447059,3.447059,60.0,60.0,60.0
597,Ge3O6,3.1387,152,5.072271,5.072225,5.752809,89.99642,90.00387,120.0051
598,O12Sb8,3.3292,227,8.104431,8.104431,8.104431,60.0,60.0,60.0
599,O2Tl4,0.5897,12,3.6215349999999997,3.6215349999999997,13.39038,82.35242,82.35242,60.18487
600,As16S16,2.3931,14,18.8419,7.644664,9.801523,82.68338,90.0,90.0
601,O2Zn2,1.823,186,3.198182,3.19798,5.129922,90.0,90.0,120.0021
602,As1Ga1,0.29460000000000003,216,4.055389,4.055389,4.055389,60.0,60.0,60.0
603,Al4O6,5.8487,167,5.180812,5.180812,5.180812,55.29854,55.29854,55.29854
604,Sr1Te1,1.7635,225,4.756289,4.756289,4.756289,60.0,60.0,60.0
605,Cl2In2,1.3239,63,6.546329,6.546329,4.532015,90.0,90.0,141.1139
606,Ni1O1,1.7922,225,2.989013,2.989013,2.989013,60.0,60.0,60.0
607,Fe2Se2,0.5846,67,4.424899,4.424899,5.514704,90.0,90.0,89.36654
608,Pb1Te1,0.7988000000000001,225,4.636535,4.636535,4.636535,60.0,60.0,60.0
609,Ge1Te1,0.335,166,4.241777,4.241777,4.241777,60.24309,60.24309,60.24309
610,Cu3N1,0.5149,221,3.819823,3.819823,3.819823,90.0,90.0,90.0
611,Os16Si24,0.884,60,5.611342,9.011729,11.21192,90.0,90.0,90.0
612,Rb4Te4,0.7967000000000001,55,4.92264,5.9450389999999995,11.33157,90.0,90.0,90.0
613,Br10La4,0.2301,11,4.314397,8.107625,13.75815,89.67814,90.0,90.0
614,Cl1K1,5.0553,225,4.508724,4.508724,4.508724,60.0,60.0,60.0
615,Ca1F2,7.1319,225,3.897037,3.897037,3.897037,60.0,60.0,60.0
616,Ga2N2,1.9094000000000002,186,3.204983,3.204983,5.220722,90.0,90.0,119.9972
617,S4V2,0.19640000000000002,194,3.313899,3.313899,22.3988,90.0,90.0,119.8676
618,O2Sn2,0.5238,129,3.907941,3.907941,5.082946,90.0,90.0,90.0
619,Ba1O1,2.0908,225,3.9702859999999998,3.9702859999999998,3.9702859999999998,60.0,60.0,60.0
620,K2N6,4.1636,140,5.67995,5.67995,5.67995,113.7195,113.7195,101.2728
621,Be24N16,3.3149,206,7.057198,7.057198,7.057198,109.4712,109.4712,109.4712
622,Cl8Se8,2.148,14,15.05138,5.299354,7.522801,85.41519,90.0,90.0
623,C2O4,6.464,136,4.499401,4.499401,4.891331,90.0,90.0,90.0
624,Al2N2,4.0535,186,3.128764,3.128765,5.016132,90.0,90.0,120.0
625,As16S16,2.3715,14,18.42149,7.65751,9.840122,82.67878,90.0,90.0
626,Br28P4,1.2493,62,8.446604,9.527141,15.54584,90.0,90.0,90.0
627,F4Mn2,2.586,136,4.977574,4.977574,3.349243,90.0,90.0,90.0
628,Eu1S1,0.7167,225,4.245209,4.245209,4.245209,60.0,60.0,60.0
629,Ge4Yb8,0.027100000000000003,62,4.863034,7.614511,9.094106,90.0,90.0,90.0
630,S4Si2,3.0294,72,6.787028,6.787028,6.787028,131.4092,126.5361,75.12202
631,Ru4Te8,0.3163,205,6.478626,6.478626,6.478626,90.0,90.0,90.0
632,S2Ti1,0.5277000000000001,164,3.473316,3.473295,6.203274,90.00013,90.0,120.0002
633,H1Li1,2.9617,225,2.825637,2.825637,2.825637,60.0,60.0,60.0
634,Mo4O12,1.8277,62,3.729575,3.952998,15.34965,90.00135,90.0,90.0
635,Mn6O8,0.6538,141,6.35349,6.35349,6.35349,124.5678,124.5678,82.25516
636,N8Si6,4.2501,176,7.661377,7.66127,2.9241479999999997,90.0,90.0,120.0013
637,Ba1Te1,0.7805000000000001,221,4.262889,4.262889,4.262889,90.0,90.0,90.0
638,Cu4P8,0.8759,14,4.83362,5.819983,7.545632,67.4212,90.0,90.0
639,Ce8S16,0.3537,62,4.131653,8.132397,16.40674,90.0,90.0,90.0
640,Al4O6,5.8523,167,5.181299,5.181299,5.181299,55.28536,55.28536,55.28536
641,Se2Sn1,0.54,164,3.927823,3.9278079999999997,6.409311,90.00615,90.0,120.0001
642,O4Si2,5.0061,136,4.232006,4.232006,2.693575,90.0,90.0,90.0
643,C2N4,2.3266999999999998,164,2.363022,2.3630269999999998,10.69415,90.0001,90.0,119.9999
644,Ni4S8,0.3553,205,5.788328,5.788328,5.788328,90.0,90.0,90.0
645,Mg1O1,4.4845,225,3.005611,3.005611,3.005611,60.0,60.0,60.0
646,Cl2Hg2,2.5774,139,6.448555,6.448555,6.448555,137.1907,137.1907,62.14473
647,O4Ti2,2.2621,136,4.6753789999999995,4.6753789999999995,3.025454,90.0,90.0,90.0
648,H1Li1,2.9616,225,2.825627,2.825627,2.825627,60.0,60.0,60.0
649,O8Si4,5.3857,4,8.466833,5.187984,5.228467,60.78624,90.0,90.0
650,O6Si3,5.6387,154,5.054267,5.054292,5.539118,90.00002,90.00003,120.0001
651,S20Zn20,2.6857,156,3.798193,3.798183,62.07997,90.00004,90.0,120.0001
652,O6Si3,5.6009,154,5.077694,5.077372,5.556557,90.00039,89.99746,119.9966
653,F3Sc1,6.5707,221,4.123638,4.123638,4.123638,90.0,90.0,90.0
654,I8U2,1.6607,15,8.769528,8.769528,7.741379,89.18053,89.18053,61.5352
655,F6Ir2,2.0513,167,5.497122,5.497122,5.497122,54.81531,54.81531,54.81531
656,Cd1Te1,0.7091000000000001,216,4.66797,4.66797,4.66797,60.0,60.0,60.0
657,F4Mn2,2.5859,136,4.97171,4.97171,3.341961,90.0,90.0,90.0
658,O6Si3,5.7058,154,4.992489,4.992226,5.493267,90.00332,90.00138,119.9954
659,As1Ga1,0.2948,216,4.055359,4.055359,4.055359,60.0,60.0,60.0
660,Hg3Te3,0.2296,152,4.660248,4.660235,10.35908,90.00013,89.99962,120.0008
661,Ca2O2,3.1113,194,4.011789,4.011789,4.815233,90.00001,89.99999,119.9949
662,In1P1,0.5775,216,4.200013,4.200013,4.200013,60.0,60.0,60.0
663,O16Si8,5.5499,15,7.234195,7.234195,7.217106,75.54749,75.54749,119.8044
664,Be2O2,7.4708,186,2.709425,2.709425,4.402687,90.0,90.0,119.9974
665,In1P1,0.5665,216,4.202793,4.202793,4.202793,60.0,60.0,60.0
666,Cd1Te1,0.7091000000000001,216,4.667955,4.667955,4.667955,60.0,60.0,60.0
667,Se8Zn4,0.9899,205,6.297783,6.297783,6.297783,90.0,90.0,90.0
668,Al2H6,2.4739,167,4.670745,4.670745,4.670745,56.00791,56.00791,56.00791
669,Cu2I2,1.6727,186,4.303344,4.303344,7.078964,90.0,90.0,119.998
670,Cd4Se8,0.6862,205,6.72719,6.72719,6.72719,90.0,90.0,90.0
671,F2Ti1,2.0332,225,3.72901,3.72901,3.72901,60.0,60.0,60.0
672,I2Tl2,2.0984,63,7.020286,7.020286,5.310843,90.0,90.0,141.0811
673,Pb1Te1,0.7988000000000001,225,4.636535,4.636535,4.636535,60.0,60.0,60.0
674,S16Zn16,2.6699,156,3.798457,3.798416,49.67627,89.99997,90.0,120.0004
675,Se1Zn1,1.6989,216,4.010335,4.010335,4.010335,60.0,60.0,60.0
676,O2Pb2,1.5657,129,4.062387,4.062387,5.375079,90.0,90.0,90.00086
677,S4Sn2,1.2793,186,3.748175,3.748194,13.1547,90.0,90.0,119.9998
678,O4Si2,5.7055,122,5.13404,5.13404,5.13404,121.1607,121.1607,88.00115
679,O24Si12,5.3828,5,9.730144,9.730144,9.767573,89.92907,90.07093,89.85078
680,O6Si3,5.6884,154,5.013505,5.013297,5.497562,89.99054,90.00099,120.0006
681,Cd1S1,0.4113,225,3.876825,3.876825,3.876825,60.0,60.0,60.0
682,Ag2I2,2.0109,186,4.720847,4.720559,7.620993,90.0,90.0,120.002
683,O2Ru1,1.4858,225,3.439092,3.439092,3.439092,60.0,60.0,60.0
684,Cl1Na1,5.0561,225,4.005917,4.005917,4.005917,60.0,60.0,60.0
685,Nd2O3,3.6457,164,3.880796,3.880797,6.105473,89.99852,90.00147,119.9974
686,O32Si16,5.7646,140,11.00413,11.00413,11.00413,103.1073,103.1073,123.1237
687,Ca1Te1,1.538,225,4.514874,4.514874,4.514874,60.0,60.0,60.0
688,Fe8Si16,0.9794,64,6.261673,6.261673,7.797567,90.0,90.0,103.992
689,Cl1Na1,5.0564,225,4.005757,4.005757,4.005757,60.0,60.0,60.0
690,I8O20,2.6311999999999998,14,5.24205,8.453461,11.06144,73.17786,90.0,90.0
691,C4Si4,2.2233,186,3.09339,3.093429,10.12577,90.0,90.0,119.9996
692,C28Ho16,0.5769000000000001,14,12.90263,3.761519,14.01821,89.09522,90.0,90.0
693,Be4O4,7.085,136,4.6410800000000005,4.6410800000000005,2.700235,90.0,90.0,90.0
694,F8Ru2,1.6055000000000001,14,5.086875,5.640252,5.504153,64.50763,90.0,90.0
695,Cl1K1,4.8269,221,3.830415,3.830415,3.830415,90.0,90.0,90.0
696,O24Yb16,0.4123,206,8.996324,8.996324,8.996324,109.4712,109.4712,109.4712
697,B16S32,2.5535,14,4.870889,12.42756,21.72284,74.72682,90.0,90.0
698,O16Si8,5.2389,116,6.607716,6.607716,8.117692,90.0,90.0,90.0
699,As4Se6,0.6037,12,7.391934,7.391934,9.664179,85.52298,85.52298,29.64669
700,Br12Cd6,2.9419,166,4.049293,4.049293,40.05948,90.00102,89.99898,120.0
701,Mo2S4,1.2194,194,3.201387,3.201387,13.46081,90.0,90.0,120.0028
702,O6Rh4,1.7273,167,5.572939,5.572939,5.572939,55.70965,55.70965,55.70965
703,Gd8S12,0.424,62,3.934235,10.57508,10.79051,90.0,90.0,90.0
704,C60K6,0.5895,204,9.961069,9.961069,9.961069,109.4712,109.4712,109.4712
705,Cl2Mg1,4.9478,115,3.8930949999999998,3.8930949999999998,5.697109,90.0,90.0,90.0
706,Os3P12,1.4100000000000001,2,7.599326,7.212895,4.755679,100.3699,90.36972,111.2735
707,O4Si2,5.0098,136,4.233114,4.233114,2.692783,90.0,90.0,90.0
708,In16Te12,0.0811,58,4.514317,12.96149,15.89125,90.0,90.0,90.0
709,C2Si2,2.2963,186,3.091874,3.091812,5.07255,90.0,90.0,120.0007
710,S5Zn5,2.6996,160,15.68642,15.68642,15.68642,13.90662,13.90662,13.90679
711,O10Sb4,0.48560000000000003,15,6.881782,6.881782,5.513872,77.28466,77.28466,41.63788
712,Eu4F12,0.8035,62,4.432505,6.699094,7.116278,90.0,90.0,90.0
713,N8Si6,4.248,176,7.661403,7.661363,2.924929,90.0,90.0,120.0004
714,C1S14,2.4979,166,7.856431,7.856431,7.856431,93.53465,93.53465,93.53465
715,Cl8Th2,3.9152,141,7.328026,7.328026,7.328026,106.6247,106.6247,115.3278
716,Cl2Zr1,0.8335,160,7.130285,7.130285,7.130285,27.73957,27.73957,27.73957
717,Nd2O3,3.636,164,3.882796,3.882468,6.12387,89.99607,90.0,120.0028
718,In1P1,0.5779000000000001,216,4.199925,4.199925,4.199925,60.0,60.0,60.0
719,O4Pt2,1.9344000000000001,186,3.143867,3.143867,9.279723,90.0,90.0,120.0046
720,Br1K1,3.9233000000000002,221,4.023177,4.023177,4.023177,90.0,90.0,90.0
721,O4Ti2,2.2647,136,4.670809,4.670809,3.022552,90.0,90.0,90.0
722,S32V8,0.9547,15,12.08364,7.329025,12.00686,79.10736,90.00078,89.99773
723,Hg4O8,0.3171,61,4.903179,6.222715,6.316426,90.0,90.0,90.0
724,Hg3Te3,0.3481,152,4.678894,4.678698,10.34297,90.00206,90.00097,120.0021
725,O10Ti6,1.1285,63,5.477869,5.477869,10.03159,90.0,90.0,137.6745
726,Br2Mg1,4.46,164,3.875115,3.875016,6.912039,90.00353,90.0,120.0008
727,Cd24P16,0.1326,206,10.78144,10.78144,10.78144,109.4712,109.4712,109.4712
728,Co6O8,0.3114,227,5.962656,5.962656,5.962656,60.0,60.0,60.0
729,Pd4Se8,0.5321,61,5.779219,5.930237,8.300436,90.0,90.0,90.0
730,I2Pb1,2.3749000000000002,166,7.9660709999999995,7.9660709999999995,7.9660709999999995,33.97758,33.97758,33.97758
731,F32Ge14,4.3563,9,9.947668,9.947734,10.39134,89.27155,89.27207,45.64698
732,As1Ga1,0.29460000000000003,216,4.055397,4.055397,4.055397,60.0,60.0,60.0
733,Se2Sn2,0.315,63,6.441044,6.441044,4.334473,90.0,90.0,140.7991
734,O8Si4,5.5298,96,5.061324,5.061324,7.032737,90.0,90.0,90.0
735,Pb1Se1,0.39780000000000004,225,4.386598,4.386598,4.386598,60.0,60.0,60.0
736,Ag2Cl2,1.9565000000000001,11,3.984794,3.952032,5.620852,89.41236,90.0,90.0
737,Er2O3,4.2034,164,3.6336079999999997,3.6336079999999997,5.829105,89.99438,90.00562,119.9958
738,Br6La2,3.5688,176,8.152066,8.15019,4.552265,90.0,90.0,119.9988
739,In16O24,1.1117,206,8.869294,8.869294,8.869294,109.4712,109.4712,109.4712
740,Ca1O1,3.6356,225,3.422329,3.422329,3.422329,60.0,60.0,60.0
741,O8Ti4,2.8247,60,4.616269,5.026775,5.5917390000000005,90.0,90.0,90.0
742,C2N4,1.0732,36,3.451154,3.451154,4.584,90.0,90.0,137.8678
743,N3Na1,4.0101,166,5.5529589999999995,5.5529589999999995,5.5529589999999995,38.62348,38.62348,38.62348
744,O4Zr2,3.8787000000000003,137,3.648647,3.648647,5.311631,90.0,90.0,90.0
745,O4Ti2,2.2665,136,4.672556,4.672556,3.023278,90.0,90.0,90.0
746,Fe2S4,1.7467000000000001,58,3.467348,4.488176,5.521212,90.0,90.0,90.0
747,Nd2O3,3.659,164,3.873453,3.873189,6.124056,89.99734,90.0,120.0023
748,I18Re6,0.8684000000000001,11,11.43849,9.334253,9.860766,69.04508,90.0,90.0
749,O16Sb8,0.42710000000000004,227,7.485366,7.485366,7.485366,60.0,60.0,60.0
750,Cd9I18,2.3895,156,4.311353,4.311353,65.37763,90.00216,89.99784,120.001
751,As16Se16,1.0613,14,11.42275,8.032452,12.48973,76.93402,90.0,90.0
752,B1N1,4.4562,216,2.563482,2.563482,2.563482,60.0,60.0,60.0
753,Ho1N1,0.08510000000000001,225,3.44996,3.44996,3.44996,60.0,60.0,60.0
754,Nd8S12,0.7643000000000001,62,4.061132,7.509969,15.68377,90.0,90.0,90.0
755,Mn1Se1,0.39840000000000003,225,3.915522,3.915522,3.915522,60.0,60.0,60.0
756,I1Rb1,3.7743,225,5.298069,5.298069,5.298069,60.0,60.0,60.0
757,Br10Nb2,1.8016,2,7.046059,7.618358,10.4043,66.72024,70.13164,63.92073
758,O4Ti2,2.2663,136,4.672244,4.672244,3.023566,90.0,90.0,90.0
759,S9Tl18,0.7484000000000001,146,9.661882,9.662717,9.661831,81.59779,81.59865,81.60566
760,O4Pb4,2.181,57,4.781267,5.799442,6.241977,90.0,90.0,90.0
761,Cr4O6,2.3733,167,5.449343,5.449343,5.449343,55.67765,55.67765,55.67765
762,O2Zn2,1.8228,186,3.199095,3.199309,5.128253,90.0,90.0,120.0022
763,Ir4N8,0.22110000000000002,14,4.925507,4.859513,4.899811,71.98886,90.0,90.0
764,O6Si3,5.6757,152,5.025377,5.025377,5.512172,90.0,90.0,120.0
765,Ag2I2,1.9941,186,4.69012,4.690041,7.732899,90.0,90.0,120.0006
766,Ag1Cl1,1.9714,225,3.972593,3.972593,3.972593,60.0,60.0,60.0
767,O6Si3,5.6847,152,4.999049,4.998864,5.483789,89.99607,90.00139,120.0027
768,P16Se20,1.746,33,6.876178,11.94695,14.9053,90.0,90.0,90.0
769,S12Sn8,0.667,62,3.856484,9.309069,14.4919,90.0,90.0,90.0
770,Br32Os8,0.2871,61,6.510464,13.38372,15.62667,90.0,90.0,90.0
771,O24Yb16,0.4046,206,8.995302,8.995302,8.995302,109.4712,109.4712,109.4712
772,Be8P16,0.8341000000000001,15,7.113429,7.113442,7.938963,77.09036,77.09014,89.99496
773,Ag4O2,0.0868,224,4.879747,4.879747,4.879747,90.0,90.0,90.0
774,Cl6U2,2.6764,11,7.589467,7.564368,4.35626,90.0,90.0,119.8434
775,I2Zn1,1.9579,166,7.541731,7.541731,7.54199,31.19039,31.19039,31.19092
776,Cl18Ti6,2.5352,151,6.393067,6.390991,19.22495,90.00444,90.01858,120.004
777,Mn1S1,0.8196,225,3.736042,3.736042,3.736042,60.0,60.0,60.0
778,Ba1Te1,1.5908,225,5.011035,5.011035,5.011035,60.0,60.0,60.0
779,Ba1O1,2.091,225,3.970361,3.970361,3.970361,60.0,60.0,60.0
780,O4Si2,5.015,136,4.232436,4.232436,2.692762,90.0,90.0,90.0
781,Cr4O6,2.3721,167,5.449701,5.449701,5.449701,55.69034,55.69034,55.69034
782,O24Se8,2.412,114,10.08302,10.08302,5.540015,90.0,90.0,90.0
783,Hg3S3,1.6044,152,4.3987359999999995,4.398785,9.67674,89.99607,89.99904,120.0035
784,Be2O2,7.4622,186,2.710239,2.710239,4.402679,90.0,90.0,119.9976
785,Cd2S2,1.26,186,4.19101,4.19101,6.809,90.0,90.0,119.9942
786,O2Th1,4.5404,225,4.119833,4.119833,4.119833,60.0,60.0,60.0
787,Ag2Cl2,1.9623,11,3.986879,3.955667,5.618173,89.51314,90.0,90.0
788,Cl1Na1,5.0394,225,4.011826,4.011826,4.011826,60.0,60.0,60.0
789,F4Mn2,2.5855,136,4.971655,4.971655,3.342184,90.0,90.0,90.0
790,Ru16Si24,0.5877,60,5.55061,8.98702,11.09041,90.0,90.0,90.0
791,Ru4Si4,0.35910000000000003,198,4.723253,4.723253,4.723253,90.0,90.0,90.0
792,Br1K1,3.8959,221,4.035092,4.035092,4.035092,90.0,90.0,90.0
793,As6Cs4,0.4232,69,9.600952,9.411491999999999,7.255438,68.95625,66.19,44.85375
794,Ba12Sn8,0.37170000000000003,96,6.745265,6.745265,18.10296,90.0,90.0,90.0
795,I4O12,1.9062999999999999,2,5.370772,6.851431,6.903544,98.12743,95.71268,104.5205
796,La8S12,0.9296000000000001,62,4.185959,7.678386,16.04479,90.0,90.0,90.0
797,Cl1K1,4.8085,221,3.836055,3.836055,3.836055,90.0,90.0,90.0
798,Te1Zn1,1.4776,216,4.34122,4.34122,4.34122,60.0,60.0,60.0
799,F4Mn2,2.5854,136,4.971713,4.971713,3.342365,90.0,90.0,90.0
800,Hg3S3,1.5227,154,4.386314,4.38602,9.626233,90.01263,89.99208,120.0326
801,O2Zn2,1.8119,186,3.193957,3.193957,5.147543,90.0,90.0,120.0002
802,C21Si21,1.6254,156,3.094777,3.094777,53.13755,90.0,90.0,120.0
803,O4Ti2,2.2664,136,4.672581,4.672581,3.02321,90.0,90.0,90.0
804,O10V4,1.4122,15,6.476255,6.476255,5.379759,77.27368,77.27368,42.83395
805,Ni2S2,0.2157,194,3.5307500000000003,3.5307500000000003,5.657649,90.0,90.0,120.0008
806,Ba6C60,0.1743,204,9.783304,9.783304,9.783304,109.4712,109.4712,109.4712
807,Ge1Te1,0.678,160,4.32858,4.32858,4.32858,58.45392,58.45392,58.45392
808,Ag1I1,1.9769999999999999,216,4.703692,4.703692,4.703692,60.0,60.0,60.0
809,C1Si1,1.3709,216,3.097128,3.097128,3.097128,60.0,60.0,60.0
810,Cd1F2,3.0496,225,3.871915,3.871915,3.871915,60.0,60.0,60.0
811,Rb2Te1,1.8929,225,6.078454,6.078454,6.078454,60.0,60.0,60.0
812,Al2N2,4.058,186,3.127946,3.127989,5.017787,90.0,90.0,119.9995
813,Ca1S1,2.3811,225,4.041802,4.041802,4.041802,60.0,60.0,60.0
814,Pb1S1,0.46540000000000004,225,4.246229,4.246229,4.246229,60.0,60.0,60.0
815,Pb1Te1,0.7988000000000001,225,4.636534,4.636534,4.636534,60.0,60.0,60.0
816,Se20Th8,0.8749,60,8.1743,8.155068,11.00477,90.0,90.0,90.0
817,K4O12,0.6285000000000001,140,7.22678,7.22678,7.22678,104.7003,104.7003,119.5033
818,Cd12I24,2.377,156,4.312981,4.312958,87.09547,90.00225,90.0,120.0002
819,O4Ti2,2.5436,141,5.582938,5.582938,5.582938,139.5172,139.5172,58.5871
820,F8Mg4,6.721,205,5.012084,5.012084,5.012084,90.0,90.0,90.0
821,F2Hg2,1.7814,139,6.131307,6.131307,6.131307,143.2882,143.2882,52.89308
822,Br1K1,3.8927,221,4.036489,4.036489,4.036489,90.0,90.0,90.0
823,Se4Sn4,0.6364000000000001,62,4.289623,4.495626,12.04578,90.0,90.0,90.0
824,K4O12,0.6291,140,7.227651,7.227651,7.227651,104.6558,104.6558,119.6024
825,B8F24,8.0465,2,4.9007950000000005,7.661038,14.68797,93.04437,88.94439,107.0571
826,Be48P32,0.1494,142,12.50262,12.50262,12.50262,131.646,131.646,70.78869
827,Te1Yb1,1.202,225,4.520751,4.520751,4.520751,60.0,60.0,60.0
828,Rb4Te2,1.3788,194,6.142029,6.141644,8.127279,90.0,90.0,120.0021
829,Br16O24,1.7739,14,8.296848,9.517901,11.9818,70.25266,90.0,90.0
830,In12O18,1.1607,167,5.547077,5.547077,14.69164,90.0,90.0,120.0
831,C2S4,3.4508,64,4.651822,4.651822,10.13882,90.0,90.0,102.9666
832,F4Mg2,6.3746,12,5.879441,5.840987,3.913425,109.6058,70.53145,113.81
833,Sn1Te1,0.0746,225,4.5625350000000005,4.5625350000000005,4.5625350000000005,60.0,60.0,60.0
834,Cl1K1,4.8933,221,3.810627,3.810627,3.810627,90.0,90.0,90.0
835,O9Y6,3.9541,12,7.276733,7.276733,8.696388,79.92343,79.92343,27.96321
836,O4Os1,3.298,5,5.290411,5.290411,4.952144,64.22299,64.22299,53.98393
837,O2Zn2,1.8083,186,3.1920859999999998,3.191827,5.153867,90.0,90.0,120.0027
838,Ru2Sb4,0.162,58,3.216354,5.999369,6.759127,90.0,90.0,90.0
839,O6Si3,5.7169,152,4.975478,4.975981,5.468999,90.00585,89.99717,119.9969
840,Bi8O12,2.2779,14,8.340113,5.929008,7.609732,66.6703,90.0,90.0
841,Cd10I20,2.4229,156,4.313814,4.313814,72.67906,90.00192,89.99808,120.0009
842,Cl1Cu1,1.2711000000000001,216,3.845319,3.845319,3.845319,60.0,60.0,60.0
843,H24O12,5.4622,1,3.971737,8.200569,8.268284,89.99845,89.99626,89.99269