,full_formula,band_gap,spacegroup.number,structure.lattice.a,structure.lattice.b,structure.lattice.c,structure.lattice.alpha,structure.lattice.beta,structure.lattice.gamma
9319,Mn4O16Rb8,0.5356000000000001,62,6.157744,8.140695,10.91837,90.0,90.0,90.0
9320,In4O14Si4,1.9383,227,6.730256,6.730256,6.730256,60.0,60.0,60.0
9321,Er1Na1O2,4.1128,166,5.902867,5.902867,5.902867,33.26635,33.26635,33.26635
9322,Al3O12P3,5.6011,152,5.074856,5.075153,11.17453,89.99751,90.00437,120.0068
9323,Na4O12V4,3.2257,15,7.271004,7.271004,5.991274,75.54828,75.54828,83.72709
9324,Ba2F6H2,5.504,11,4.232339,4.765546,8.440842,103.9152,90.0,90.0
9325,Bi2O6U1,2.0174,164,9.559591,3.956884,6.854757,30.01785,89.9903,90.0
9326,O8P2Tb2,5.8746,141,5.804625,5.804625,5.804625,105.9349,105.9349,116.8021
9327,F3Mo1Xe1,1.9108,221,4.389691,4.389691,4.389691,90.0,90.0,90.0
9328,H2Mg1O2,4.189,164,3.186316,3.186294,4.773931,90.00037,90.0,120.0002
9329,Al10B2O18,4.9442,36,8.107206,8.107206,7.762117,90.0,90.0,138.6124
9330,Cr4O12Y4,2.4141,62,5.311817,5.61906,7.671943,90.0,90.0,90.0
9331,Fe4Na4O8,1.8755000000000002,92,5.648489,5.648489,7.306652,90.0,90.0,90.0
9332,Li2Nb2O6,3.4222,161,5.548274,5.548274,5.548274,56.06949,56.06949,56.06949
9333,Cs1Eu1F3,1.556,221,4.858773,4.858773,4.858773,90.0,90.0,90.0
9334,As2O6Pd1,1.7239,162,4.917092,4.917092,4.775513,89.99929,89.99928,119.9994
9335,Fe4P12Th1,0.034800000000000005,204,6.8055129999999995,6.8055129999999995,6.8055129999999995,109.4712,109.4712,109.4712
9336,Ag16S32Sn12,0.418,213,11.01622,11.01622,11.01622,90.0,90.0,90.0
9337,Na1O3Ta1,2.5029,221,3.995744,3.995744,3.995744,90.0,90.0,90.0
9338,F3N1Sb1,0.8057000000000001,221,4.440923,4.440923,4.440923,90.0,90.0,90.0
9339,Bi8Cu4O16,0.8318000000000001,130,8.524733,8.524733,6.016363,90.0,90.0,90.0
9340,Cd4O14Sb4,0.6509,74,7.367655,7.367655,7.367655,120.3187,118.8867,90.69401
9341,C2Ca2O6,4.9932,167,6.46766,6.46766,6.46766,45.83425,45.83425,45.83425
9342,Ba2H3I1,2.1942,164,4.5198409999999996,4.5198409999999996,8.146477,89.99939,90.00061,120.0012
9343,Ga1K2P1,0.6801,225,5.491721,5.491721,5.491721,60.0,60.0,60.0
9344,Mg2O8Se2,2.8504,63,4.981907,4.981907,6.645048,90.0,90.0,112.7521
9345,Co8S8Sb8,0.5807,61,5.854754,5.990212,11.70694,90.0,90.0,90.0
9346,Ba4O16U4,2.998,57,5.818024,8.303485,8.397171,90.0,90.0,90.0
9347,O16S4Sn4,3.5516,2,5.127794,10.33493,7.259116,97.488,93.18598,88.89186
9348,Al4I16Tl4,3.4384,14,8.224862,8.381824,16.39756,85.02049,89.99848,90.00109
9349,Dy2O8V2,2.9596,141,6.006245,6.006245,6.006245,106.1912,106.1912,116.2515
9350,Ge2Mg2O6,2.4337,63,4.949791,4.949791,7.027764,90.0,90.0,146.5181
9351,Ba1O6Sb2,2.8907,162,5.386639,5.386697,5.9018809999999995,89.99927,90.00112,119.9998
9352,Bi4O12Te2,1.2421,64,8.873377,8.873377,5.454111,90.0,90.0,144.17
9353,O30S4Sb12,3.2348,37,11.40667,11.40667,5.968891,90.0,90.0,114.0124
9354,Cs1S2Tb1,2.1333,166,8.39527,8.39527,8.39527,28.41215,28.41215,28.41215
9355,Cl20K4Pb8,3.6438,14,8.196089,8.968873,12.73505,89.61488,90.0,90.0
9356,C2Na4O6,3.807,12,5.216862,5.216862,6.172264,80.08906,80.08906,61.34387
9357,Cs1I3Pb1,1.4472,221,6.382435,6.382435,6.382435,90.0,90.0,90.0
9358,Ca8O16Ru4,0.9871000000000001,61,5.488718,5.807876,11.63081,90.0,90.02318,90.0
9359,O28Se8Tb8,3.2247,138,10.7092,10.7092,5.286758,90.0,90.0,90.0
9360,O14Si4Y4,3.6231999999999998,2,11.03561,5.232988,4.616733,89.81822,65.65913,88.20167000000001
9361,Cl24Re2Se4,1.8479999999999999,43,12.523859999999999,12.31459,8.761344,70.63157,68.07007,41.29836
9362,La2Nb14O38,2.4,150,6.319307,6.319305,20.31554,89.99997,90.00006,120.0005
9363,Ho1Pt1Sb1,0.1607,216,4.647646,4.647646,4.647646,60.0,60.0,60.0
9364,Cs4O12V4,3.098,57,5.594777,5.903409,12.48309,90.0,90.0,90.0
9365,Cd2Ge2P4,0.6936,122,6.841437,6.841437,6.841437,129.7049,129.7049,73.87897
9366,In1Ir1La2,0.2802,216,5.122451,5.122451,5.122451,60.0,60.0,60.0
9367,Ag2Na6O4,1.325,72,6.848138,6.848138,6.848138,132.3537,128.6815,72.62069
9368,Cl8Mn1Na6,4.2305,225,7.987909,7.987909,7.987909,60.0,60.0,60.0
9369,Ca8O16Ru4,0.9756,61,5.503673,5.796099,11.63321,90.0,90.0,90.0
9370,Cd1Cs1F3,3.5625,221,4.5495090000000005,4.5495090000000005,4.5495090000000005,90.0,90.0,90.0
9371,Mo2O12Y5,0.0815,12,6.828187,6.828187,7.586576,73.69476,73.69476,50.06366
9372,Cu4O14V4,1.2634,15,5.645357,5.645357,10.24896,76.39806,76.39806,91.703
9373,Mo6O20Rb4,3.318,15,8.423714,8.423714,9.364195,83.11951,83.11951,59.71569
9374,Au16Na16S16,2.2162,68,13.0307,13.0307,7.170135,90.01254,90.01254,110.7591
9375,Ag4F28Ir4,0.0903,62,7.355177,7.954083,10.6488,90.0,90.0,90.0
9376,K8Re12S24,1.4122,15,9.714299,9.714299,12.05045,88.9096,88.9096,61.04786
9377,Co1I12Tb7,0.2546,148,9.7616,9.7616,9.7616,106.7736,106.7736,106.7736
9378,Ag6As2O8,0.43010000000000004,218,6.256678,6.256678,6.256678,90.0,90.0,90.0
9379,P8S32Tb8,2.1676,142,12.25386,12.25386,12.25386,127.514,127.514,77.41372
9380,Ba2Cl2F2,5.45,129,4.45493,4.45493,7.324874,90.0,90.0,90.0
9381,Cd1F3Se1,0.6950000000000001,221,4.458052,4.458052,4.458052,90.0,90.0,90.0
9382,F3Ga1Pt1,0.4561,221,4.430855,4.430855,4.430855,90.0,90.0,90.0
9383,Ge4Mn8S16,1.215,62,6.094361,7.573832,12.976890000000001,90.0,90.0,90.0
9384,Al2La2O6,3.5817,167,5.415007,5.415007,5.415007,60.12903,60.12903,60.12903
9385,As4Cu4S4,0.051300000000000005,62,3.828424,5.514358,11.43976,90.0,90.0,90.0
9386,In2Li2Te4,1.4206,122,7.867754,7.867754,7.867754,130.7661,130.7661,72.18496
9387,Co8Nb4O18,2.5347,165,5.222886,5.222886,14.27485,90.00008,89.99992,120.0
9388,Cl6Rb2Te1,2.6807,225,7.480375,7.480375,7.480375,60.0,60.0,60.0
9389,Ag8C4N8,1.2312,14,6.106143,6.963122,7.341532,77.28466,90.0,90.0
9390,Ba4Ho8O16,3.2272,62,3.464621,10.47611,12.15383,90.0,90.0,90.0
9391,Bi4O18Si6,3.612,176,6.923518,6.92359,9.732718,90.0,90.0,119.9998
9392,K4N4O8,2.5019,14,9.812184,4.506483,7.159732,71.54305,90.0,90.0
9393,Fe2I6O18,2.3313,173,9.372709,9.372777,5.402438,90.0,90.0,120.0014
9394,La6O14Os2,1.1059,63,6.843583,6.843583,7.76673,90.0,90.0,111.8915
9395,La8Ni2S14,1.4929000000000001,4,10.08886,10.09569,6.980454,90.0,90.0,120.2812
9396,Na2Nb2O4,1.4302000000000001,194,2.987929,2.987928,11.67016,90.0,90.0,120.0
9397,Mo1O8V2,1.1882,35,9.86391,9.86391,4.302334,90.0,90.0,158.3682
9398,Na4O14S4,5.0963,2,6.927316,6.966028,6.8936779999999995,63.37372,83.79506,83.89912
9399,Ba10Cr2N10,0.17370000000000002,12,7.99102,7.99102,9.497758,76.1998,76.1998,96.19057
9400,Cl20Cs4Pd8,1.9541,62,5.51316,10.87999,16.25638,90.0,90.0,90.0
9401,Ga3O12P3,4.5225,152,4.99299,4.99299,11.2172,90.0,90.0,120.0
9402,Al2Cu2S4,2.0502,122,6.48925,6.48925,6.48925,131.1165,131.1165,71.62798
9403,Cl6Te1Tl2,2.5503,225,7.317435,7.317435,7.317435,60.0,60.0,60.0
9404,C1O4Rb4,1.674,121,6.702214,6.702214,6.702214,126.9102,126.9102,78.39723
9405,Ag1Cl1O4,2.5694,216,5.200214,5.200214,5.200214,60.0,60.0,60.0
9406,Cu3S4V1,1.2822,215,5.449829,5.449829,5.449829,90.0,90.0,90.0
9407,Nb4O18Sr8,3.7865,2,5.93129,15.85503,5.928848,90.00779,119.9842,90.00048
9408,Mg8S16Si4,2.9672,62,5.9500589999999995,7.490583,12.81083,90.0,90.0,90.0
9409,Ge2Mg2O6,2.4374000000000002,63,4.951664,4.951664,7.02563,90.0,90.0,146.513
9410,Cu1Fe1O2,0.8411000000000001,166,6.036724,6.036724,6.036724,29.45908,29.45908,29.45908
9411,Ca4O12Zr4,3.8216,62,5.83282,5.640631,8.103456,90.0,90.0,90.0
9412,Cs2Hg3I8,1.7202000000000002,8,11.97738,11.97738,8.070407,84.00813,84.00813,142.9962
9413,Ba1F3In1,3.5273,221,5.105028,5.105028,5.105028,90.0,90.0,90.0
9414,Cd4K4O6,0.7752,14,6.810004,6.593064,6.743622,62.91123,90.0,90.0
9415,Na2O10V4,0.5167,59,3.648047,4.98266,11.45094,90.0,90.0,90.0
9416,As3Ga3O12,3.1142,152,5.094909,5.094744,11.59116,89.99788,90.00371,120.0132
9417,Al4Ca4H20,3.2847,19,4.327092,4.942253,12.11459,90.0,90.0,90.0
9418,Cu1Li2O2,0.8583000000000001,12,3.505353,3.505353,5.26574,101.2601,101.2601,48.12175
9419,Ba4Ce4O12,2.8863000000000003,62,6.324764,6.325544,8.903958,90.0,90.0,90.0
9420,O8Sr2W2,4.4175,88,7.208342,7.208342,7.208342,135.121,135.121,65.3422
9421,As1B2P1,1.0623,115,3.308184,3.308184,4.683486,90.0,90.0,90.0
9422,C8Cs4K4,3.4617,62,5.913644,8.374434,9.121196,90.0,90.0,90.0
9423,F20K4Te4,5.2131,57,4.886876,9.453802,11.50784,90.0,90.0,90.0
9424,Ag2Ga2Se4,0.6987,122,7.047401,7.047401,7.047401,128.5172,128.5172,75.7886
9425,Ag4Sb4Te8,0.06380000000000001,227,8.745373,8.745373,8.745373,60.0,60.0,60.0
9426,P4Sn2Zn2,0.6787000000000001,122,7.025177,7.025177,7.025177,132.0248,132.0248,70.1899
9427,Al2O8P2,5.4885,20,5.104353,5.104353,7.133253,90.0,90.0,90.06635
9428,La6O14Ru2,1.1623,63,6.82284,6.82284,7.757974,90.0,90.0,112.2087
9429,Au1Be1F3,1.2458,221,3.720531,3.720531,3.720531,90.0,90.0,90.0
9430,Mn1S17U8,0.969,12,8.025038,8.025038,10.56273,80.00144,80.00144,64.25919
9431,Li8O12Ti4,3.485,15,5.157397,5.157397,9.891695,84.87709,84.87709,120.1405
9432,Ba4O12Pr4,1.642,62,6.304988,6.290652,8.871202,90.0,90.0,90.0
9433,Hf4Ho4O14,3.1166,227,7.412185,7.412185,7.412185,60.0,60.0,60.0
9434,O22U4V4,0.5827,14,14.55228,7.076002,5.946394,51.28052,90.0,90.0
9435,Al2La2O6,3.5055,167,5.415482,5.415482,5.415482,60.10229,60.10229,60.10229
9436,F18Na6Ti3,5.2211,150,9.376556,9.378471,5.247134,90.0,90.00084,120.0068
9437,Bi4Ge2O10,2.3255,36,8.420838,8.420838,5.48909,90.0,90.0,141.0229
9438,F12K2Sb2,4.8918,132,5.285136,5.285136,10.26656,90.0,90.0,90.0
9439,Bi1N1Sr3,0.2632,221,5.258774,5.258774,5.258774,90.0,90.0,90.0
9440,Ho2I2S2,2.7137000000000002,59,4.173152,5.341959,9.851226,90.0,90.0,90.0
9441,Cs1Er1S2,2.1533,166,8.37241,8.37241,8.37241,28.14764,28.14764,28.14764
9442,Ba2Pd2S4,0.8819,63,6.385226,6.385226,5.707161,90.0,90.0,114.9492
9443,As2Co1O6,2.2258,162,4.860637,4.860632,4.574677,89.99975,90.00046,120.0003
9444,As2F12I6,1.331,2,8.324377,6.093132,10.62912,101.0467,90.68354,97.0282
9445,F8Na2U1,2.9197,139,6.679705,6.679705,6.679705,129.7557,129.7557,73.79769
9446,Cd28Cl24P16,1.7631000000000001,205,12.08729,12.08729,12.08729,90.0,90.0,90.0
9447,Bi4Ca4Li4,0.5787,62,4.7263020000000004,7.818502,8.556587,90.0,90.0,90.0
9448,Fe2Ga1V1,0.6983,225,4.048098,4.048098,4.048098,60.0,60.0,60.0
9449,Ba6Cu11F34,2.0846,2,7.571105,10.12424,10.42301,83.60821,74.18863,70.4975
9450,As16Ca12Si8,0.8237,14,17.7975,7.192608,7.324255,68.34356,90.0,90.0
9451,Cr4Hg4O16,1.0254,14,12.09688,6.031744,6.529649,95.82803,90.0,90.0
9452,Bi4O16Ta4,2.9922,2,5.645592,7.834104,7.839643,102.1515,89.96846,93.53044
9453,Eu2O6Ti2,0.7707,140,5.612653,5.612653,5.610612,119.9794,119.9794,90.0565
9454,Li8Mg4Si4,0.16110000000000002,215,6.358063,6.358063,6.358063,90.0,90.0,90.0
9455,Br16In4K4,2.8754,52,8.028634,10.74848,10.7867,90.0,90.0,90.0
9456,Ga4I16K4,2.5934,14,8.124325,8.534393,16.50611,84.79328,90.0,90.0
9457,Br12Hg8Te4,1.8936000000000002,14,10.22303,7.8884989999999995,10.28363,84.59573,90.00182,89.99972
9458,Na8O10Te2,1.9893,2,8.701015,5.790035,5.760406,77.30587,69.95629,69.6118
9459,Mo4Na16O20,2.8104,2,10.09173,5.708153,11.09843,101.7353,123.2493,83.64409
9460,B1Nb1Ni1,0.3473,216,3.77755,3.77755,3.77755,60.0,60.0,60.0
9461,Ca1H2O2,4.03,164,3.624885,3.624951,5.033287,90.00293,90.0,119.9994
9462,As8F48Te28,0.9049,62,9.988337,11.38242,16.78129,90.0,90.0,90.0
9463,S16Y8Zn4,2.3888,62,6.3173200000000005,7.910769,13.56315,90.0,90.0,90.0
9464,Li2N2O6,2.9814,167,5.823732,5.823732,5.823732,48.26936,48.26936,48.26936
9465,Al2Cu2S4,2.1048,122,6.472832,6.472832,6.472832,131.167,131.167,71.54794
9466,La2Nb2O8,4.229,15,6.5111419999999995,6.5111419999999995,6.362247,106.5164,106.5164,115.7162
9467,Be12O24Si6,5.8222000000000005,148,7.76865,7.769619,7.769101,108.0226,108.0102,108.0166
9468,Ca4O8Si2,3.3043,186,5.5493310000000005,5.54679,7.433809,90.0,90.0,120.0152
9469,Al1F3Zn1,2.3135,221,4.050578,4.050578,4.050578,90.0,90.0,90.0
9470,Cs1F3Sr1,1.2266,221,5.238577,5.238577,5.238577,90.0,90.0,90.0
9471,Ag2In2S4,0.9229,122,7.112914,7.112914,7.112914,130.3402,130.3402,72.86346
9472,Mo12O72S12,2.9419,15,14.98059,14.98059,8.847242,76.69386,76.69386,48.78275
9473,O10Pb6Se2,2.4687,36,7.766699,7.766699,5.890852,90.0,90.0,92.26506
9474,Br18Cs6Ho4,4.2013,167,10.44224,10.44224,10.44224,83.59171,83.59171,83.59171
9475,Hg18O32P8,1.8599,161,10.41783,10.41783,10.41783,108.518,108.518,108.518
9476,Cu16Se12Si2,0.5738,31,7.232575,7.338363,10.20212,90.0,90.0,90.0
9477,Fe1Hg1Ti2,0.10070000000000001,216,4.44966,4.44966,4.44966,60.0,60.0,60.0
9478,Au7I1P10,0.8428,162,6.2800650000000005,6.280042,11.29257,89.99982,89.99925,120.0008
9479,O14Ti4Y4,3.2925,227,7.242502,7.242502,7.242502,60.0,60.0,60.0
9480,N4S2Zr4,0.5614,194,3.648249,3.64823,12.90727,90.0,90.0,120.0002
9481,I4O16U2,2.8247,14,17.66332,4.319265,5.689198,71.6043,90.0,90.0
9482,Mg16O48Si16,4.7066,61,5.250811,8.941826,18.45283,89.99988,90.00022,89.99742
9483,Co8La8O20,0.9948,62,5.5202,5.78836,16.07403,90.0,90.0,89.99717
9484,Ba4Ce4O12,2.8773,62,6.318328,6.320229,8.909284,90.0,90.0,90.0
9485,Cr8S32Y16,0.5446,29,7.59025,12.63193,12.73588,90.0,90.0,90.0
9486,Ag1F3Zn1,2.9931,221,3.979244,3.979244,3.979244,90.0,90.0,90.0
9487,Br16Cl4Sr10,4.444,85,11.59113,11.59113,7.155058,90.0,90.0,90.0
9488,C1Ca1N2,3.5774,166,5.401281,5.401281,5.401281,40.31022,40.31022,40.31022
9489,Cl4Hg6Te4,1.8789,199,8.350233,8.350233,8.350233,109.4712,109.4712,109.4712
9490,F16K4Mn4,2.2052,14,9.313414999999999,7.128345,7.184059,99.0214,90.0,90.0
9491,Cr4O8Zn2,2.6348000000000003,227,5.952073,5.949466,5.952469,60.01228,59.96807,60.01889
9492,F4K2Mg1,6.4219,139,7.249717,7.249717,7.249717,147.699,147.699,46.32997
9493,Co1H1O2,2.7043,166,4.661008,4.661008,4.661008,35.93627,35.93627,35.93627
9494,Co1Sb1Ti1,0.8167000000000001,216,4.161411,4.161411,4.161411,60.0,60.0,60.0
9495,F8Pb2Sn2,3.5622,129,4.430915,4.430915,10.77831,90.0,90.0,90.0
9496,Cd2Ge2P4,0.6944,122,6.8423680000000004,6.8423680000000004,6.8423680000000004,129.724,129.724,73.84834
9497,La2O8Ta2,3.5194,36,7.7382159999999995,7.7382159999999995,5.739232,90.0,90.0,150.0377
9498,F3K1Ni1,3.6536,221,4.072026,4.072026,4.072026,90.0,90.0,90.0
9499,Al12O24Sr6,4.063,173,8.998958,8.998964,8.48355,90.0,90.0,120.0004
9500,As1Se3Tl3,0.7782,160,6.408245,6.408245,6.408245,107.4318,107.4318,107.4318
9501,Cr4O8Si2,1.9144,70,7.594161,6.387612,5.776434,77.08191,55.06811,47.84997
9502,Ba1O3Zr1,3.037,221,4.256662,4.256662,4.256662,90.0,90.0,90.0
9503,Ba8C8Si8,0.9702000000000001,62,6.196312,8.287997,11.11143,90.0,90.0,90.0
9504,Al2As4Na6,0.9018,72,8.275844,8.275844,8.275844,135.8516,130.6261,68.36714
9505,Li8O16S4,6.0297,14,5.026203,8.351551,8.585415,72.60708,90.0,90.0
9506,Cr4O12W2,1.1334,136,4.654799,4.654799,9.06547,90.0,90.0,90.0
9507,Bi12Ge1O20,2.4415,197,8.936834,8.936834,8.936834,109.4712,109.4712,109.4712
9508,Cu1Li1S1,1.4339,216,3.9094800000000003,3.9094800000000003,3.9094800000000003,60.0,60.0,60.0
9509,Co1Sb1Ti1,0.8165,216,4.161638,4.161638,4.161638,60.0,60.0,60.0
9510,Ga2Hg1S4,1.6202,82,6.545088,6.545088,6.545088,129.1661,129.1661,74.74346
9511,Hg1Na2O2,1.6644,139,7.183049,7.183049,7.183049,152.1746,152.1746,39.75845
9512,Ba2Br2H2,3.1962,129,4.567531,4.567531,7.468425,90.0,90.0,90.0
9513,S20Sb12Tl4,1.5802,14,15.97433,7.477792,9.197713,65.65993,90.0,90.0
9514,Ca4O12Si4,3.5428,139,6.250341,6.250341,6.250341,109.3832,109.3832,109.6475
9515,F3Ga1Pb1,1.2724,221,4.8121100000000006,4.8121100000000006,4.8121100000000006,90.0,90.0,90.0
9516,F3Mg1Rb1,6.927,221,4.130415,4.130415,4.130415,90.0,90.0,90.0
9517,Br12Sr2Th2,2.017,51,4.341651,9.430629,13.46763,90.0,90.0,90.0
9518,Mg2Na2Sb2,1.0361,129,4.658424,4.658424,7.737448,90.0,90.0,90.0
9519,B1O4P1,7.2632,82,4.586667,4.586667,4.586667,122.3799,122.3799,85.92499
9520,F2Gd2O2,4.5908999999999995,166,6.86889,6.86889,6.86889,32.92808,32.92808,32.92808
9521,Cl14Fe2Te2,2.3668,1,6.812571,10.52702,8.802378,84.90793,83.50516,76.08959
9522,Cl16Co4Rb8,3.6179,62,7.185935,9.339785,14.44421,90.0,90.0,90.0
9523,Bi2Cl2O2,2.5735,129,3.919663,3.919663,7.745376,90.0,90.0,90.0
9524,O8P2Sb2,4.0167,11,6.878736,4.871771,5.22906,84.20255,90.0,90.0
9525,C2I10La6,0.4031,2,11.78547,9.904736,8.147384,74.86589,70.89313,54.10316
9526,Au4F16Hg2,2.0808,124,5.904261,5.904261,10.65325,90.0,90.0,90.0
9527,O24Pb4V8,2.2127,62,3.688662,9.949695,13.03438,90.0,90.0,90.0
9528,Cs2I6Mn2,2.5313,194,8.346314,8.346314,7.097158,90.0,90.0,120.0036
9529,Dy1Ni1Sb1,0.09970000000000001,216,4.475353,4.475353,4.475353,60.0,60.0,60.0
9530,Al2Hg1Se4,1.441,82,6.856615,6.856615,6.856615,129.3613,129.3613,74.42985
9531,Ba1O3Ti1,2.1308,221,4.06119,4.06119,4.06119,90.0,90.0,90.0
9532,Be4N4Sr2,1.8709,140,5.503387,5.503387,5.503387,118.5892,118.5892,92.46153
9533,Ca2Cl1N1,2.3765,166,6.984198,6.984198,6.984198,30.48513,30.48513,30.48513
9534,Br18Rb6V4,1.1524,194,7.599107,7.599107,19.28492,90.0,90.0,120.0023
9535,Co1Si1Ta1,1.1829,216,3.957862,3.957862,3.957862,60.0,60.0,60.0
9536,Al1F3V1,0.44430000000000003,221,4.211755,4.211755,4.211755,90.0,90.0,90.0
9537,Cl12Os1S2,1.0225,166,8.432456,8.432456,8.432456,78.42332,78.42332,78.42332
9538,La4O18W4,3.0031,2,7.387878,7.423393,7.146754,83.59159,85.22258,70.07367
9539,Sb8Se16Yb4,0.7176,62,4.079528,12.33029,15.18158,90.0,90.0,90.0
9540,Al10B2O18,4.9388000000000005,36,8.105396,8.105396,7.766062,90.0,90.0,138.6153
9541,Br6Cs2V2,2.3136,194,7.751801,7.751801,6.615991,90.0,90.0,120.001
9542,Cl16N8P8,2.1602,86,13.30612,13.30612,7.599067,90.0,90.0,90.0
9543,Ca12Ga2N10,0.7756000000000001,193,6.32979,6.32979,12.22078,90.0,90.0,119.9963
9544,Ag8Nb8O24,2.1411,57,5.616117,5.671527,15.82376,90.0,90.0,90.0
9545,Al4O8Zn2,4.4902,227,5.731488,5.731488,5.731488,60.0,60.0,60.0
9546,Ce2O16Zr6,2.4279,15,7.447649,5.3322140000000005,9.260772,53.51962,90.40391,91.33166
9547,Ge4N8Zn4,2.0783,33,5.18708,5.467388,6.428838,90.0,90.0,90.0
9548,Al6O24P6,5.4634,2,9.336474,6.199988,7.601657,77.74745,73.94296,64.4515
9549,Ba4Nb8O24,2.9979,20,7.347163,7.347163,10.44614,90.0,90.0,114.4902
9550,Al2Se4Tl2,0.5746,140,6.648666,6.648666,6.648666,103.4975,103.4975,122.2215
9551,C2Ca2O6,5.0003,167,6.447241,6.447241,6.447241,46.10619,46.10619,46.10619
9552,Cd1F6Rh1,1.3045,148,5.756431,5.243252,5.247653,60.05042,62.95069,62.9096
9553,Cs2Mo6O18,0.7678,12,9.257065,9.257065,6.552433,86.22933,86.22933,49.80269
9554,Cl1K1O4,5.1425,216,5.383167,5.383167,5.383167,60.0,60.0,60.0
9555,C2Ca2O6,5.0001,167,6.461277,6.461277,6.461277,45.98721,45.98721,45.98721
9556,H2Na2O2,2.8386,11,3.425699,3.426825,5.921368,76.54359,90.0,90.0
9557,B8O14Sr2,7.111,31,4.281742,4.475824,10.84422,90.0,90.0,90.0
9558,Ag8N8O24,2.6111,61,7.2755849999999995,7.45426,10.16927,90.0,90.0,90.0
9559,Rb8Se16W4,1.4659,62,7.414085,10.35334,13.18487,90.0,90.0,90.0
9560,C2Cu1Rb1,2.2436,123,4.525696,4.525696,4.956949,90.0,90.0,90.0
9561,La1Na1Se2,1.8951,166,7.439476,7.439476,7.439476,34.30299,34.30299,34.30299
9562,O14Sn4Tb4,2.2249,227,7.50616,7.50616,7.50616,60.0,60.0,60.0
9563,Cr4F16Na4,2.8726000000000003,14,5.422084,7.557957,8.022473,78.29262,90.0,90.0
9564,Br6Li12N2,1.3407,14,8.199707,3.596164,14.1091,120.4246,90.0,90.0
9565,As8Co12O32,2.172,14,9.824173,5.905761,10.47285,87.06382,90.0,90.0
9566,O8W2Zn2,3.0741,13,5.759882,4.673562,4.955704,90.8106,90.0,90.0
9567,N3Ta1Th1,0.20320000000000002,221,4.115752,4.115752,4.115752,90.0,90.0,90.0
9568,Cd2O8S2,2.9966,63,4.96759,4.96759,7.277986,90.0,90.0,114.4461
9569,Fe2Na4O8,1.0473,63,5.535467,5.535467,7.178915,90.0,90.0,115.6243
9570,F6Pb1Pt1,2.3941,166,4.934583,4.934583,4.934583,98.42927,98.42927,98.42927
9571,B2H12N2,6.0409,31,4.930536,5.099769,5.460904,90.0,90.0,90.0
9572,Al2H8Mg1,4.4261,164,5.197525,5.197525,6.002805,89.99576,90.00424,120.0062
9573,C4Na4O8,3.3875,14,5.295126,3.554679,10.59913,86.199,90.0,90.0
9574,As2C6N6,4.2278,5,7.385028,7.385028,7.400026,82.4159,82.4159,81.51438
9575,B6H24N2,5.4068,63,5.534188,5.534188,8.546973,90.0,90.0,97.55355
9576,Au2Cl8Cs2,1.8687,15,7.398655,7.398655,10.22371,76.77092,76.77092,51.45536
9577,B16Li8O28,5.6321,110,8.685903,8.685903,8.685903,113.1062,113.1062,102.4229
9578,O12Th2Ti4,3.6471999999999998,15,7.145594,7.145594,5.3346219999999995,70.36673,70.36673,76.11248
9579,Al1Rh1Y2,0.417,216,4.8722,4.8722,4.8722,60.0,60.0,60.0
9580,S16Sn4Tl16,1.4743,14,8.456328,8.561495,15.86306,75.59277,90.0,90.0
9581,Cu6P2Se8,0.2923,31,6.45116,6.743759,7.786683,90.0,90.0,90.0
9582,Bi4Cr4O12,1.2964,15,5.575844,5.575844,9.772197,73.82355,73.82355,60.17478