,full_formula,band_gap,spacegroup.number,structure.lattice.a,structure.lattice.b,structure.lattice.c,structure.lattice.alpha,structure.lattice.beta,structure.lattice.gamma
1124,O56Si28,5.5293,12,15.81273,15.81273,12.59591,74.741,74.741,31.29032
1125,F6Fe2,2.6790000000000003,167,5.45409,5.45409,5.45409,58.00662,58.00662,58.00662
1126,F4Mg2,6.8392,136,4.692458,4.692458,3.090795,90.0,90.0,90.0
1127,S1Sr1,2.4951,225,4.286358,4.286358,4.286358,60.0,60.0,60.0
1128,O6Si3,5.6228,154,5.073942,5.073322,5.524425,90.00163,90.00167,120.0004
1129,Rb8Te4,1.687,62,5.577793,9.242384,11.12394,90.0,90.0,90.0
1130,N10Ta6,1.4438,63,5.536013,5.536013,10.38988,90.0,90.0,138.3246
1131,S2Ti1,0.5582,164,3.485195,3.485195,6.223005,89.99773,90.00227,119.9972
1132,Cl1K1,5.0534,225,4.509612,4.509612,4.509612,60.0,60.0,60.0
1133,S4Zn4,2.7103,186,3.79745,3.797552,12.4178,90.0,90.0,119.9991
1134,Re8Si14,0.1547,8,11.7662,11.7662,8.348183,87.1397,87.1397,15.43833
1135,Al2N2,4.0519,186,3.129688,3.129456,5.014528,90.0,90.0,120.0024
1136,Al4C3,1.3187,166,8.598167,8.598167,8.598167,22.4973,22.4973,22.4973
1137,O4Si2,5.3686,227,5.274552,5.274552,5.274552,60.0,60.0,60.0
1138,B8Cl16,2.9181,61,6.692999,8.537261,12.85404,90.0,90.0,90.0
1139,I2Pb1,2.3594,164,4.651469,4.65169,7.336678,90.00708,90.0,119.9984
1140,F4Si1,7.7111,217,4.778509,4.778509,4.778509,109.4712,109.4712,109.4712
1141,Pb1S1,0.4652,225,4.246096,4.246096,4.246096,60.0,60.0,60.0
1142,Ni2S2,0.1904,194,3.527683,3.527683,5.640778,90.0,90.0,120.0043
1143,Mn1S1,0.8213,225,3.736393,3.736393,3.736393,60.0,60.0,60.0
1144,O4Ti2,2.263,136,4.672358,4.672358,3.026961,90.0,90.0,90.0
1145,Ge2O4,1.1631,136,2.912465,4.482075,4.485877,90.0,90.0,90.0
1146,P8Pt4,0.8747,205,5.740801,5.740801,5.740801,90.0,90.0,90.0
1147,Cl1K1,4.8933,221,3.810627,3.810627,3.810627,90.0,90.0,90.0
1148,Os8Si16,0.7411,64,6.529906,6.529906,8.263014,90.0,90.0,102.9452
1149,O12Sb8,1.5108000000000001,59,3.34126,8.039122,13.37723,90.0,90.0,90.0
1150,S1Zn1,2.6790000000000003,216,3.797859,3.797859,3.797859,60.0,60.0,60.0
1151,F20U4,2.9463,122,8.650168,8.650168,8.650168,95.52431,95.52431,143.8489
1152,S2Sn1,1.3577,164,3.7407019999999997,3.740703,6.696531,90.00304,89.99694,120.0031
1153,Be2O2,7.4529,186,2.710756,2.710756,4.402732,90.0,90.0,119.9979
1154,Cd10I20,2.3777,156,4.312721,4.312721,72.76188,90.00184,89.99816,120.001
1155,F8Mg4,6.7278,205,5.011165,5.011165,5.011165,90.0,90.0,90.0
1156,Fe4S8,2.0211,205,5.5223700000000004,5.5223700000000004,5.5223700000000004,90.0,90.0,90.0
1157,F18La6,7.6566,165,7.309913,7.309983,7.476781,90.0,90.00001,120.0003
1158,F8Pt2,1.5603,43,6.774644,5.692713,5.59059,73.79274,53.79436,52.4129
1159,C1Hf1,0.2969,216,3.5670830000000002,3.5670830000000002,3.5670830000000002,60.0,60.0,60.0
1160,O2Zn2,1.8162,186,3.193985,3.193787,5.1435130000000004,90.0,90.0,120.002
1161,Se2Zr1,0.27030000000000004,164,3.801525,3.8015470000000002,6.464401,90.00197,90.0,119.9998
1162,Cl1Cs1,4.8357,225,5.001139,5.001139,5.001139,60.0,60.0,60.0
1163,Mn1S1,0.8194,225,3.736005,3.736005,3.736005,60.0,60.0,60.0
1164,Ho16O24,3.9468,206,9.186849,9.186849,9.186849,109.4712,109.4712,109.4712
1165,Ca1S1,2.3813,225,4.041934,4.041934,4.041934,60.0,60.0,60.0
1166,Ga4S6,1.7363,9,6.533267,6.533267,7.101296,63.45805,63.45805,59.68746
1167,O12P8,3.8246,11,8.318095,6.6199259999999995,7.144156,73.04417,90.0,90.0
1168,K6Sb2,0.40650000000000003,194,6.118977,6.119215,10.87579,90.0,90.0,119.9987
1169,O8Si4,5.5368,92,5.04657,5.04657,7.038484,90.0,90.0,90.0
1170,O8Sn4,0.181,62,3.610388,5.390873,7.357159,90.0,90.0,90.0
1171,Ba8Ge16,0.49770000000000003,62,6.847509,9.236616,11.68458,90.0,90.0,90.0
1172,Fe4Ga12,0.5433,136,6.229385,6.229385,6.492099,90.0,90.0,90.0
1173,Fe2Se2,0.5205000000000001,67,4.206543,4.206543,6.010642,90.0,90.0,89.7295
1174,O4Ti2,2.2662,136,4.672835,4.672835,3.023361,90.0,90.0,90.0
1175,C2Ca1,1.2913000000000001,139,4.21445,4.21445,4.21445,125.2194,125.2194,81.17501
1176,O8Te4,2.7864,92,4.982125,4.982125,7.658765,90.0,90.0,90.0
1177,F18La6,7.697,165,7.301978,7.301978,7.470033,89.99987,90.00013,120.0011
1178,S1Yb1,1.1474,225,4.029701,4.029701,4.029701,60.0,60.0,60.0
1179,B2Br6,3.7898,176,6.948722,6.9493100000000005,8.092461,90.0,90.0,120.0005
1180,O24Yb16,0.4022,206,8.99601,8.99601,8.99601,109.4712,109.4712,109.4712
1181,Mg1O1,4.469,225,3.007271,3.007271,3.007271,60.0,60.0,60.0
1182,S28Zn28,2.6687000000000003,156,3.797844,3.797811,86.87518,90.00001,90.0,120.0003
1183,Br1K1,3.8802000000000003,221,4.042034,4.042034,4.042034,90.0,90.0,90.0
1184,S1Zn1,2.6722,216,3.799524,3.799524,3.799524,60.0,60.0,60.0
1185,F16Se4,4.0456,19,5.518312,5.878444,10.77778,90.0,90.0,90.0
1186,S10Zn10,2.6933,156,3.795876,3.795819,31.02322,90.00005,90.0,120.0005
1187,Si4Sr8,0.34500000000000003,62,5.147863,8.123743,9.614184,90.0,90.0,90.0
1188,Cr2F6,2.6821,167,5.379152,5.379152,5.379152,56.81927,56.81927,56.81927
1189,Te1Zn1,1.4782,216,4.341036,4.341036,4.341036,60.0,60.0,60.0
1190,F5U1,3.9917,87,5.375104,5.375104,5.375104,100.386,100.386,129.7501
1191,F2Pb1,4.3969000000000005,225,4.240319,4.240319,4.240319,60.0,60.0,60.0
1192,Be3N2,4.269,164,2.818722,2.8186359999999997,4.669469,90.00237,90.0,120.001
1193,Ba1F2,6.6176,225,4.438104,4.438104,4.438104,60.0,60.0,60.0
1194,O16Ti8,2.5694,61,5.275037,5.546807,9.342379,90.0,90.0,90.0
1195,Rb2Te1,1.8958,225,6.075028,6.075028,6.075028,60.0,60.0,60.0
1196,O8Si4,5.529,92,5.062362,5.062362,7.088397,90.0,90.0,90.0
1197,Br1K1,3.8664,221,4.048257,4.048257,4.048257,90.0,90.0,90.0
1198,F4Fe2,2.6286,136,4.799891,4.799891,3.330715,90.0,90.0,90.0
1199,Ag4O2,0.0874,224,4.878457,4.878457,4.878457,90.0,90.0,90.0
1200,Ru4Si4,0.354,198,4.720808,4.720808,4.720808,90.0,90.0,90.0
1201,Ca1O1,3.6358,225,3.422725,3.422725,3.422725,60.0,60.0,60.0
1202,Ca1F2,7.1318,225,3.89703,3.89703,3.89703,60.0,60.0,60.0
1203,Ag1Br1,1.5728,225,4.121144,4.121144,4.121144,60.0,60.0,60.0
1204,Mg1S1,2.7702999999999998,225,3.693271,3.693271,3.693271,60.0,60.0,60.0
1205,Br16Tl8,1.7089,52,8.160353,10.63372,10.78554,90.0,90.0,90.0
1206,O8Si4,5.5355,92,5.024755,5.024755,6.94397,90.0,90.0,90.0
1207,Mg1Te1,2.3214,216,4.604342,4.604342,4.604342,60.0,60.0,60.0
1208,O6Ti4,0.8337,167,5.49191,5.49191,5.49191,57.63912,57.63912,57.63912
1209,Cl1Li1,6.2461,225,3.643713,3.643713,3.643713,60.0,60.0,60.0
1210,C12N8,3.5011,215,5.086756,5.086756,5.086756,90.0,90.0,90.0
1211,F4Mg2,6.8412,136,4.691394,4.691394,3.090954,90.0,90.0,90.0
1212,O8Ti4,2.6663,62,3.990076,6.585414,6.396744,90.0,90.0,90.0
1213,Mn6O8,0.656,141,6.348752,6.348752,6.348752,124.622,124.622,82.16512
1214,Cl1Rb1,4.8418,225,4.734451,4.734451,4.734451,60.0,60.0,60.0
1215,F8Pd4,1.7717,205,5.443964,5.443964,5.443964,90.0,90.0,90.0
1216,F4Mg2,6.8293,136,4.689332,4.689332,3.098427,90.0,90.0,90.0
1217,Cd1Te1,0.7091000000000001,216,4.667954,4.667954,4.667954,60.0,60.0,60.0
1218,Br1Cs1,4.2671,221,4.3828700000000005,4.3828700000000005,4.3828700000000005,90.0,90.0,90.0
1219,O2Th1,4.5405,225,4.119763,4.119763,4.119763,60.0,60.0,60.0
1220,Pb1S1,0.46530000000000005,225,4.246201,4.246201,4.246201,60.0,60.0,60.0
1221,Se2Zn2,1.7398,186,4.010462,4.010462,6.56206,90.0,90.0,119.9961
1222,B12O2,1.8581,166,5.153041,5.153041,5.153041,63.08811,63.08811,63.08811
1223,Se4Sn4,0.6501,62,4.26129,4.567359,11.9272,90.0,90.0,90.0
1224,Os4S8,0.43520000000000003,205,5.67365,5.67365,5.67365,90.0,90.0,90.0
1225,O1Zn1,1.6864,216,3.180284,3.180284,3.180284,60.0,60.0,60.0
1226,I2In2,1.3226,63,6.924894,6.924894,4.9217569999999995,90.0,90.0,139.1611
1227,F3Sc1,6.5705,221,4.12367,4.12367,4.12367,90.0,90.0,90.0
1228,Pb1Te1,0.7988000000000001,225,4.636535,4.636535,4.636535,60.0,60.0,60.0
1229,Ho16O24,3.944,206,9.188579,9.188579,9.188579,109.4712,109.4712,109.4712
1230,Ag4O4,0.26780000000000004,14,3.679491,5.52595,5.695092,75.01983,90.0,90.0
1231,Ga4O6,2.6529,167,5.372926,5.372926,5.372926,55.81251,55.81251,55.81251
1232,O16Si8,5.5426,15,7.23548,7.23548,7.232721,75.48871,75.48871,119.7247
1233,O16Ti8,2.5694,61,5.27506,5.546856,9.342329,90.0,90.0,90.0
1234,O6Si3,5.7165,154,4.974351,4.974709,5.484913,89.99755,90.00501,120.0074
1235,O6V4,0.0376,167,5.559134,5.559134,5.559134,54.80684,54.80684,54.80684
1236,Cd1Te1,0.7091000000000001,216,4.667965,4.667965,4.667965,60.0,60.0,60.0
1237,O6Si3,5.7136,152,4.971894,4.971545,5.468775,90.00506,90.00251,119.9997
1238,Co6O8,0.3108,227,5.962383,5.962383,5.962383,60.0,60.0,60.0
1239,O6Si3,5.739,152,4.976605,4.9761109999999995,5.472565,90.00255,90.00273,120.0006
1240,Sr1Te1,1.7634,225,4.756249,4.756249,4.756249,60.0,60.0,60.0
1241,Al4Br12,3.0837,14,8.768356,7.175136,13.56044,89.68293,90.0,90.0
1242,Cr4O6,2.3707000000000003,167,5.448191,5.448191,5.448191,55.71483,55.71483,55.71483
1243,Cl1K1,5.0547,225,4.509004,4.509004,4.509004,60.0,60.0,60.0
1244,Nb4O10,2.7799,15,6.923996,6.923996,5.610872,76.79446,76.79446,41.87862
1245,O4Ti2,2.2662,136,4.672623,4.672623,3.02305,90.0,90.0,90.0
1246,Bi16K16,0.42060000000000003,14,7.381549,13.63438,14.45892,66.66051,90.0,90.0
1247,Cl1Cu1,1.2805,216,3.83653,3.83653,3.83653,60.0,60.0,60.0
1248,Se4Sn4,0.6308,62,4.266758,4.5339220000000005,12.02745,90.0,90.0,90.0
1249,Ce8S12,0.7736000000000001,62,4.128321,7.599524,15.826550000000001,90.0,90.0,90.0
1250,Fe2Se2,0.5118,129,4.264668,4.264668,5.388249,90.0,90.0,90.0
1251,F1Rb1,5.9252,221,3.451341,3.451341,3.451341,90.0,90.0,90.0
1252,Cl1K1,4.8933,221,3.810627,3.810627,3.810627,90.0,90.0,90.0
1253,O4Pb4,2.1448,57,4.811287,5.7374,6.165432,90.0,90.0,90.0
1254,Hf2Se6,0.26940000000000003,11,3.749396,5.439081,9.81712,96.05879,90.0,90.0
1255,Bi2Te3,0.30760000000000004,166,10.67637,10.67637,10.67637,24.09532,24.09532,24.09532
1256,F16Te4,3.9885,19,5.702066,6.158538,9.990457,90.0,90.0,90.0
1257,O4Te2,1.3331,63,7.190031,7.190031,3.386445,90.0,90.0,153.1888
1258,Bi16Se24,0.555,137,9.920785,9.920785,13.50818,90.0,90.0,90.0
1259,F4Tl4,3.0479,28,5.431929,5.437946,6.444895,90.0,90.0,90.0
1260,S1Zn1,2.6765,216,3.7984809999999998,3.7984809999999998,3.7984809999999998,60.0,60.0,60.0
1261,I1Rb1,3.348,221,4.486563,4.486563,4.486563,90.0,90.0,90.0
1262,O6Si3,5.6745,154,5.025733,5.025504,5.499879,89.99902,89.99844,119.9976
1263,K2O1,1.7127,225,4.584355,4.584355,4.584355,60.0,60.0,60.0
1264,Pb1S1,0.4655,225,4.24628,4.24628,4.24628,60.0,60.0,60.0
1265,B8Cl16,2.9135,61,6.69893,8.486571,12.79431,90.0,90.0,90.0
1266,C1Si1,1.3705,216,3.096527,3.096527,3.096527,60.0,60.0,60.0
1267,As1Ga1,0.2949,216,4.055355,4.055355,4.055355,60.0,60.0,60.0
1268,O16Ti8,2.5721,61,5.264141,5.545301,9.357851,90.0,90.0,90.0
1269,O24W12,0.8673000000000001,62,4.862474,8.555875,9.824763,90.0,90.0,90.0
1270,Cr8Te24,0.2434,14,11.53098,8.376159,10.87755,74.40286,90.00715,89.99919
1271,N6O12,2.8247,204,7.14466,7.14466,7.14466,109.4712,109.4712,109.4712
1272,Al4O6,5.8509,167,5.180707,5.180707,5.180707,55.29587,55.29587,55.29587
1273,Li3N1,0.9842000000000001,191,3.652303,3.652303,3.888512,90.0,90.0,119.9976
1274,Ga1P1,1.6442,216,3.884279,3.884279,3.884279,60.0,60.0,60.0
1275,Ca20Sb12,0.2447,62,8.313077,9.589625,12.620190000000001,90.0,90.0,90.0
1276,Ge1Te1,0.7284,160,4.354464,4.354464,4.354464,58.0004,58.0004,58.0004
1277,Cl6Gd2,3.9353,176,7.545935,7.542174,4.091849,90.0,90.0,120.02
1278,O2Zr1,3.1223,225,3.64291,3.64291,3.64291,60.0,60.0,60.0
1279,Cl1K1,5.0529,225,4.509793,4.509793,4.509793,60.0,60.0,60.0
1280,Ca1S1,2.3838,225,4.043492,4.043492,4.043492,60.0,60.0,60.0
1281,Cr4O6,2.3719,167,5.447838,5.447838,5.447838,55.72131,55.72131,55.72131
1282,Ag2Cl2,1.3776,63,6.05398,6.05398,4.042609,90.0,90.0,144.1467
1283,Al4O6,5.8496,167,5.1805579999999996,5.1805579999999996,5.1805579999999996,55.29975,55.29975,55.29975
1284,Li1N3,3.6387,12,3.304721,3.304721,4.989079,75.10198,75.10198,61.05106
1285,Na8S20,1.7579,62,5.901153,7.7733419999999995,14.70617,90.0,90.0,90.0
1286,Mo2S4,1.2530000000000001,194,3.198888,3.198888,13.53243,90.0,90.0,120.0029
1287,Mg1O1,4.4703,225,3.007119,3.007119,3.007119,60.0,60.0,60.0
1288,Cs8Se20,1.124,19,21.00307,7.136309,7.528112,90.0,90.0,90.0
1289,Bi8S12,1.3732,62,4.026526,11.18346,11.65977,90.0,90.0,90.0
1290,F4Ni2,4.0099,136,4.706779,4.706779,3.116278,90.0,90.0,90.0
1291,O6Si3,5.715,154,4.984755,4.98503,5.49751,89.99831,90.00334,120.0066
1292,O6Si3,5.7293,154,4.970929,4.970461,5.46902,90.00168,90.00169,120.0004
1293,Be2C1,1.1649,225,3.060391,3.060391,3.060391,60.0,60.0,60.0
1294,O2Rb2,1.7621,71,5.164444,5.164444,5.164444,131.4194,107.5608,92.10419
1295,Cu1I1,1.6183,216,4.327999,4.327999,4.327999,60.0,60.0,60.0
1296,Na2S1,2.4961,225,4.619198,4.619198,4.619198,60.0,60.0,60.0
1297,As8S8,2.0738,15,7.326588,7.326588,9.585223,81.12924,81.12924,85.32086
1298,O2Zn2,1.8224,186,3.197916,3.197916,5.13065,90.0,90.0,119.9964
1299,F4V2,1.7069999999999999,136,4.89392,4.89392,3.309779,90.0,90.0,90.0
1300,Co4Sb12,0.1484,204,7.8702000000000005,7.8702000000000005,7.8702000000000005,109.4712,109.4712,109.4712
1301,O12Rh8,1.7034,60,5.25108,5.467406,7.375086,90.0,90.0,90.0
1302,N3Na1,3.9889,166,5.532157,5.532157,5.532157,38.5871,38.5871,38.5871
1303,As2Na6,0.1374,194,5.064578,5.064578,9.021338,90.0,90.0,120.0034
1304,F6Ti2,1.9957,167,5.541962,5.541962,5.541962,61.34641,61.34641,61.34641
1305,Br1Cu1,1.1369,216,4.052771,4.052771,4.052771,60.0,60.0,60.0
1306,As8S8,2.0428,15,7.289343,7.289343,9.567415,81.18744,81.18744,85.34595
1307,Cl1Na1,5.0506,225,4.00782,4.00782,4.00782,60.0,60.0,60.0
1308,Ga1N1,0.6271,225,3.002964,3.002964,3.002964,60.0,60.0,60.0
1309,Cl12Ti4,2.5256,15,6.330808,6.427024,12.60953,89.59359,90.82519,119.506
1310,S8Zn8,2.7172,160,24.9841,24.98411,24.98411,8.714235,8.713816,8.713816
1311,Dy1N1,0.052000000000000005,225,3.474767,3.474767,3.474767,60.0,60.0,60.0
1312,Cu1I1,1.6398000000000001,216,4.312895,4.312895,4.312895,60.0,60.0,60.0
1313,Fe2Se2,0.5039,129,4.257797,4.257797,5.602734,90.0,90.0,90.0
1314,Li6N2,1.2197,194,3.564921,3.564921,6.35231,90.0,90.0,120.0037
1315,O12Sb8,3.3387000000000002,227,8.116258,8.116258,8.116258,60.0,60.0,60.0
1316,O8Si4,5.5396,92,5.038654,5.038654,7.000216,90.0,90.0,90.0
1317,O3Tb2,4.1375,164,3.702797,3.702797,5.897137,89.99324,90.00676,119.9958
1318,O24Sc16,4.2758,206,8.703307,8.703307,8.703307,109.4712,109.4712,109.4712
1319,O8Zr4,3.4488,14,5.290941,5.212558,5.390549,80.43575,90.0,90.0
1320,Cd8I16,2.3916,156,4.311162,4.311163,58.21955,90.0017,89.99999,120.0006
1321,Hg3O3,1.2545,152,3.736752,3.736709,8.939092,89.99132,90.01624,119.9995
1322,Cl6Gd4,0.2209,12,8.085327,8.085327,10.37703,62.18352,62.18352,28.14291
1323,Be1O1,8.1747,225,2.580186,2.580186,2.580186,60.0,60.0,60.0
1324,F12Y4,7.5731,62,4.540319,6.369077,6.955113,90.0,90.0,90.0
1325,Bi8I8,0.7103,12,7.90822,7.90822,20.81389,86.65063,86.65063,32.43885
1326,Co6S8,0.4199,227,6.825805,6.825805,6.825805,60.0,60.0,60.0
1327,In4S4,1.3221,58,3.996074,4.691753,10.71698,90.0,90.0,90.0
1328,O6Si3,5.7246,152,4.9812829999999995,4.981259,5.468227,89.9999,89.99986,120.0004
1329,O14V8,0.6259,2,6.773718,5.761354,12.2241,88.23157,83.75783,75.50733
1330,Cd1Se1,0.641,216,4.37054,4.37054,4.37054,60.0,60.0,60.0
1331,Ce1O2,2.4252000000000002,225,3.882558,3.882558,3.882558,60.0,60.0,60.0
1332,O24Yb16,0.4062,206,8.991027,8.991027,8.991027,109.4712,109.4712,109.4712
1333,F8Mg4,6.733,205,5.009306,5.009306,5.009306,90.0,90.0,90.0
1334,Al4O6,5.8495,167,5.180851,5.180851,5.180851,55.29671,55.29671,55.29671
1335,S5Zn5,2.7277,160,15.68957,15.68959,15.68959,13.90339,13.9028,13.9028
1336,N1Pr1,0.1178,225,3.652777,3.652777,3.652777,60.0,60.0,60.0
1337,O2Zn2,1.8215,186,3.199066,3.199066,5.129752,90.0,90.0,119.9964
1338,Ce6F18,4.7621,165,7.246608,7.246608,7.38945,90.00261,89.99739,119.9732
1339,O8Ti4,2.4764,14,4.97434,4.910502,5.097535,80.16524,90.0,90.0
1340,Ag2I2,1.9939,186,4.689415,4.689415,7.733668,90.0,90.0,120.0
1341,Ir8S12,1.1024,60,6.053615,6.196515,8.533614,90.0,90.0,90.0
1342,O4Ti2,2.2656,136,4.671036,4.671036,3.024345,90.0,90.0,90.0
1343,F2Pb1,4.3969000000000005,225,4.240316,4.240316,4.240316,60.0,60.0,60.0
1344,P16Zn8,1.3978000000000002,92,5.083598,5.083598,18.52295,90.0,90.0,90.0
1345,Na2Se1,2.0632,225,4.81762,4.81762,4.81762,60.0,60.0,60.0
1346,Fe2Se4,1.1642000000000001,58,3.6861990000000002,4.848886,5.893995,90.0,90.0,90.0
1347,Cl8U2,2.2678000000000003,141,7.123663,7.123663,7.123663,107.4856,107.4856,113.5199
1348,Mg1O1,4.47,225,3.007162,3.007162,3.007162,60.0,60.0,60.0
1349,Ce2O3,2.6983,164,3.934036,3.94476,6.134751,90.20353,90.0,119.9101
1350,Pb1Te1,0.7988000000000001,225,4.636535,4.636535,4.636535,60.0,60.0,60.0
1351,As16S12,2.4523,62,7.1127,10.84974,12.19629,90.0,90.0,90.0
1352,Mg12O12,3.1272,72,11.43349,11.43349,11.43349,158.7414,148.7162,38.13487
1353,Cl8O16,0.9837,61,5.723732,7.142446,10.94713,90.0,90.0,90.0
1354,F18La6,7.713,185,7.29922,7.29922,7.466837,90.0,90.0,120.0015
1355,O2Zn2,1.8227,186,3.197948,3.197948,5.130347,90.0,90.0,119.9964
1356,Br1Rb1,4.215,225,4.953476,4.953476,4.953476,60.0,60.0,60.0
1357,Se1Zn1,1.6981000000000002,216,4.01055,4.01055,4.01055,60.0,60.0,60.0
1358,O6Si3,5.6785,152,5.021638,5.021638,5.510897,90.0,90.0,120.0
1359,Al4O6,5.851,167,5.180859,5.180859,5.180859,55.29369,55.29369,55.29369
1360,Ge3O6,3.143,152,5.105502,5.107356,5.777374,90.0161,90.00448,119.9936
1361,I6Ti2,1.8503,193,7.7404910000000005,7.7404910000000005,6.954789,90.0,90.0,120.0
1362,P20Yb4,0.4312,4,16.58656,5.658023,5.532767,76.82364,90.0,90.0
1363,Br16Nb6,0.3871,2,7.178491,7.177081,14.82941,75.9539,75.96178,59.99494
1364,O8Ti4,2.8179,60,4.612878,5.029713,5.5894960000000005,90.0,90.0,90.0
1365,Pb1S1,0.46480000000000005,225,4.24591,4.24591,4.24591,60.0,60.0,60.0
1366,As16S16,2.3709,14,18.38411,7.662081,9.824841,82.79188,90.0,90.0
1367,Ge1Te1,0.37560000000000004,225,4.251588,4.251588,4.251588,60.0,60.0,60.0
1368,I1Tl1,2.1544,225,5.014852,5.014852,5.014852,60.0,60.0,60.0
1369,As4Ru2,0.4776,58,3.005643,5.471763,6.259605,90.0,90.0,90.0
1370,F6Ti2,1.9891,167,5.546035,5.546035,5.546035,61.61612,61.61612,61.61612
1371,Li8S4,3.9035,62,3.812719,6.314462,7.268509,90.0,90.0,90.0
1372,Al2Os1,0.5131,139,4.738755,4.738755,4.738755,140.8975,140.8975,56.49312
1373,Fe12S12,1.0991,14,7.041193,7.015664,9.854156,81.24246,90.0,90.0
1374,Ge3O6,3.1365,154,5.061379,5.061356,5.752989,90.00285,89.99613,120.0039
1375,Rb8Te4,1.3786,62,6.143841,8.105868,10.63958,90.0002,90.0,90.0
1376,Cl1K1,5.0439,225,4.51394,4.51394,4.51394,60.0,60.0,60.0
1377,B4H12,5.001,14,7.693034,4.560662,6.086323,73.86579,90.0,90.0
1378,Ag4O2,0.08650000000000001,224,4.880363,4.880363,4.880363,90.0,90.0,90.0
1379,Cl2Hg2,2.6531000000000002,139,6.493967,6.493967,6.493967,137.4776,137.4776,61.70404
1380,O6Si3,5.6829,152,5.016002,5.016002,5.508332,90.0,90.0,120.0
1381,O4Si2,5.0151,136,4.2323,4.2323,2.692867,90.0,90.0,90.0
1382,Se1Zn1,1.6982,216,4.010532,4.010532,4.010532,60.0,60.0,60.0
1383,Te6Tl4,0.48460000000000003,9,6.951147,6.951147,11.07726,58.69604,58.69604,58.31695
1384,F24Mo4,4.0293,62,5.236474,9.079732,10.00931,90.0,90.0,90.0
1385,Sn1Te1,0.0747,225,4.562577,4.562577,4.562577,60.0,60.0,60.0
1386,O4Ti2,2.2611,136,4.670841,4.670841,3.024287,90.0,90.0,90.0
1387,Co2F4,4.2151,136,4.757124,4.757124,3.203808,90.0,90.0,90.0
1388,K4S2,2.0422,63,5.317424,5.317424,7.293658,90.0,90.0,120.2486
1389,S24Zn24,2.6759,156,3.798656,3.798635,74.48328,90.00002,90.0,120.0002
1390,O6Si3,5.7113,152,4.978352,4.978436,5.478282,90.00012,90.00008,120.0004
1391,Mg1S1,2.7702999999999998,225,3.693271,3.693271,3.693271,60.0,60.0,60.0
1392,Cl1H1,2.8268,139,5.241187,4.014893,4.008513,81.5722,49.26671,49.16109
1393,Mg1O1,3.0123,187,2.93848,2.93848,2.680656,90.0,90.0,120.0003
1394,Ce1O2,2.4183,225,3.885096,3.885096,3.885096,60.0,60.0,60.0
1395,Br2Ni1,2.1503,166,6.58561,6.58561,6.58561,32.6262,32.6262,32.6262
1396,Gd6O9,3.5981,12,7.366016,7.366016,8.832928,79.91246,79.91246,28.15771
1397,O1Sr1,3.2756,225,3.680901,3.680901,3.680901,60.0,60.0,60.0
1398,O8Te4,2.8038,96,4.974862,4.974862,7.648248,90.0,90.0,90.0
1399,Eu1Te1,0.7902,225,4.691177,4.691177,4.691177,60.0,60.0,60.0
1400,O2Zn2,1.8212000000000002,186,3.202855,3.202855,5.124242,90.0,90.0,119.9957
1401,F4Mg2,6.8376,136,4.692494,4.692494,3.091412,90.0,90.0,90.0
1402,C10N8,5.9311,161,6.571071,6.571071,6.571071,88.19034,88.19034,88.19034