,full_formula,band_gap,spacegroup.number,structure.lattice.a,structure.lattice.b,structure.lattice.c,structure.lattice.alpha,structure.lattice.beta,structure.lattice.gamma
8003,Ag4Nb8O22,2.8519,9,6.314442,6.314442,12.97756,75.81905,75.81905,59.14445
8004,Li5O6Re1,2.2411,12,5.099554,5.099554,5.084184,80.06127,80.06127,119.7857
8005,Cd4O10U2,2.7862999999999998,15,6.407847,6.407847,8.292317,72.5027,72.5027,49.48713
8006,Nb1Ni2Sc1,0.2388,216,4.325288,4.325288,4.325288,60.0,60.0,60.0
8007,Cl6Rb2V2,2.3205999999999998,194,7.168617,7.168539,6.30022,90.0,90.0,120.0004
8008,Ag2In2S4,0.9199,122,7.098037,7.098037,7.098037,130.1445,130.1445,73.17593
8009,Er4Li4O8,4.1293,14,6.172593,6.126305,6.189457,61.05291,90.0,90.0
8010,Pb2Te6Tl8,0.1056,140,9.205769,9.205769,9.205769,121.7485,121.7485,86.99732
8011,Ge1Hg2Se4,0.39790000000000003,82,7.125586,7.125586,7.125586,131.7608,131.7608,70.6071
8012,Hg14O20P4,1.4984,14,10.21286,6.384268,9.989145,84.17197,90.0,90.0
8013,O18Sr6Te6,3.2855,1,9.171521,12.28916,5.975441,90.49976,92.25784,69.05439
8014,As1B1O3,0.5936,221,3.40814,3.40814,3.40814,90.0,90.0,90.0
8015,Au1C2K1,2.4192,123,4.346168,4.346168,5.240109,90.0,90.0,90.0
8016,Bi8Ge6O24,3.4604,220,9.253407,9.253407,9.253407,109.4712,109.4712,109.4712
8017,Au2Cs6Ge8,0.9197000000000001,59,6.265631,7.27063,13.15947,90.0,90.0,90.0
8018,Cd6Cl18Cs6,2.6235,194,7.535516,7.53553,18.79782,90.0,90.0,119.9999
8019,Na10Sn12Sr1,0.6649,217,9.85452,9.85452,9.85452,109.4712,109.4712,109.4712
8020,O14Sb4Sr4,1.3704,74,7.564161,7.564161,7.564161,119.8946,118.0015,91.83949
8021,Fe4O16Sb8,1.1622,135,8.667376,8.667376,6.140939,90.0,90.0,90.0
8022,O8P2Tb2,5.5238,88,6.632436,6.632436,6.632436,136.9504,136.9504,62.51438
8023,B4Li4O8,5.4126,14,4.397394,5.886469,6.640102,65.39147,90.0,90.0
8024,K4P4Si2,1.2015,72,7.998291,7.998291,7.998291,134.815,128.6424,70.77511
8025,Os4P4Se4,0.6459,14,5.994343,5.987702,6.077498,67.95327,90.0,90.0
8026,Cu6Nd6Sb8,0.0218,220,8.478988,8.478988,8.478988,109.4712,109.4712,109.4712
8027,F3Ge1Li1,3.2162,221,3.759652,3.759652,3.759652,90.0,90.0,90.0
8028,Al2La2O6,3.6255,167,5.416827,5.416827,5.416827,60.15431,60.15431,60.15431
8029,S4Tl3V1,2.1014,217,6.64771,6.64771,6.64771,109.4712,109.4712,109.4712
8030,C2Mg2O6,4.9625,167,5.741086,5.741086,5.741086,48.21214,48.21214,48.21214
8031,La2Mo1O6,3.5175,121,8.763957,8.763957,8.763957,151.1981,151.1981,41.18552
8032,Ca4O14Sb4,1.7368999999999999,74,7.399856,7.399856,7.399856,119.9893,118.5829,91.24521
8033,O22Te8Y4,3.2385,15,6.765131,6.765131,16.42779,76.40757,76.40757,45.04113
8034,Cl8Mo2O2,1.4917,2,6.611806,7.977556,7.494705,102.5007,107.7935,95.61014
8035,Li5O6Re1,2.2636,12,5.105847,5.105847,5.091734,80.06072,80.06072,119.7821
8036,Li6O8P2,5.8019,31,4.914166,5.303107,6.18695,90.0,90.0,90.0
8037,Li2N1Tl1,0.09340000000000001,225,4.298945,4.298945,4.298945,60.0,60.0,60.0
8038,Ca2O8W2,4.0955,88,6.875133,6.875133,6.875133,134.4376,134.4376,66.40531
8039,Cr4O8Zn2,2.6346,227,5.95077,5.95077,5.95077,60.0,60.0,60.0
8040,Bi1Se2Tl1,0.2268,166,8.036323,8.036323,8.036323,31.13906,31.13906,31.13906
8041,Ba1Mo6S8,0.08070000000000001,148,6.763095,6.763095,6.763095,88.86563,88.86563,88.86563
8042,Al2La2O6,3.7043,167,5.434579,5.434579,5.41882,59.90375,59.90375,60.0
8043,C2Ca2O6,4.9972,167,6.464903,6.464903,6.464903,45.92273,45.92273,45.92273
8044,O4Sr2Ti1,2.4506,139,6.946419,6.946419,6.946419,146.9185,146.9185,47.48451
8045,Ag2In2Te4,0.4045,122,7.9529,7.9529,7.9529,130.8623,130.8623,72.03194
8046,N8Si4Zn4,3.8261000000000003,33,5.005644,5.24486,6.2398,90.0,90.0,90.0
8047,Be4F16Tl8,4.4396,62,5.920859,7.801588,10.66469,90.0,90.0,90.0
8048,C2Fe2O6,3.1343,167,5.542465,5.542465,5.542465,48.92185,48.92185,48.92185
8049,Mg2O26Te12,2.9812000000000003,148,8.806294,8.806323,8.806342,71.8897,71.88979,71.89005
8050,B1Ca3N3,0.5858,123,3.571135,3.571135,8.187491,90.0,90.0,90.0
8051,Mn4O12Se4,3.2609,62,5.209256,6.185834,8.024718,90.0,90.0,90.0
8052,B4Fe2O8,2.9346,15,5.623906,5.623906,4.476387,73.88839,73.88839,60.97319
8053,In1N1Na2,0.029500000000000002,225,4.730537,4.730537,4.730537,60.0,60.0,60.0
8054,H48S8Si16,4.4764,60,8.278807,8.868437,14.9321,90.0,90.0,90.0
8055,Cu6La6Sb8,0.1482,220,8.609899,8.609899,8.609899,109.4712,109.4712,109.4712
8056,Ag4Ba8Si12,0.0721,70,12.45808,10.81498,8.720911,78.43581,58.26479,43.2994
8057,Cd1Li2Se1,0.0731,225,4.790481,4.790481,4.790481,60.0,60.0,60.0
8058,Cl4F40Sb4,2.316,57,6.0128,8.527601,15.49632,90.0,90.0,90.0
8059,Cl16Na8Pd4,2.1703,130,9.700437,9.700437,7.642723,90.0,90.0,90.0
8060,Cu3S4V1,1.2818,215,5.450333,5.450333,5.450333,90.0,90.0,90.0
8061,Ge2Se6Tl4,1.0871,2,9.128328,7.14215,7.050886,66.29047,65.70112,72.07986
8062,Cd8Ge2Se12,0.7867000000000001,9,7.583358,7.583358,13.18271,72.83148,72.83148,60.13382
8063,In4O7Rb2,1.6182,162,5.703861,5.70364,7.432202,90.00496,89.99708,120.002
8064,Bi8La16S36,0.9838,62,4.061899,13.05827,28.77347,90.0,90.0,90.0
8065,Ge2P4Zn2,1.2453,122,6.653139,6.653139,6.653139,131.3044,131.3044,71.32995
8066,O8W2Zn2,3.0624,13,5.767978,4.676759,4.949147,90.99676,90.0,90.0
8067,Al2Bi2Br12,2.5892,2,8.228706,8.092027999999999,11.02678,60.57565,73.22823,82.1267
8068,Br1Cl14P3,1.5632000000000001,79,9.027668,9.027668,9.027668,119.7766,119.7766,90.38733
8069,H27K6Re3,5.2155,189,9.50292,9.50288,5.5535630000000005,90.0,90.0,120.0001
8070,Cu3Nb1Se4,1.5517,215,5.74278,5.74278,5.74278,90.0,90.0,90.0
8071,Cu4Nb8O24,1.7067999999999999,14,14.26736,5.203569,5.663935,89.96833,90.0,90.0
8072,P56Pb4Zn4,1.2842,62,9.681393,11.98308,15.1816,90.0,90.0,90.0
8073,Cl4Hg6S4,1.9060000000000001,199,7.967402,7.967402,7.967402,109.4712,109.4712,109.4712
8074,Ca4O12Si4,3.7246,62,5.102388,5.117989,7.198625,90.0,90.0,90.00326
8075,Ag4Nb8O22,2.8349,161,12.97843,12.97834,12.978390000000001,28.01801,28.02141,28.01905
8076,Br16S4W4,1.45,14,6.512209,10.477640000000001,13.69926,69.40941,90.0,90.0
8077,K2O6Sb2,2.6745,148,6.958298,6.958298,6.958298,46.33613,46.33613,46.33613
8078,P8Se24Tl16,1.5249000000000001,14,9.19979,12.58299,12.87484,79.15902,90.0,90.0
8079,Ni4O8Si2,2.9468,227,5.73963,5.73963,5.73963,60.0,60.0,60.0
8080,Bi4Rb12Se12,2.0786,198,10.36206,10.36206,10.36206,90.0,90.0,90.0
8081,Ca8Fe8O20,0.6105,62,5.540918,5.656873,14.8716,90.0,90.0,90.0
8082,Ba2Br2H2,3.2142,129,4.568106,4.568106,7.48612,90.0,90.0,90.0
8083,Ag2Ga2S4,1.5008,122,6.67793,6.67793,6.67793,128.0763,128.0763,76.50151
8084,Mg4N8Si4,3.9639,33,5.028779,5.311078,6.503413,90.0,90.0,90.0
8085,Li2N2Zr1,1.5842,164,3.302651,3.302651,5.481244,90.00098,89.99902,120.0006
8086,Ba1F6Pb1,2.8611,166,5.178937,5.178937,5.178937,97.26481,97.26481,97.26481
8087,F2H8N2,5.9616,186,4.452054,4.452054,7.198122,90.0,90.0,119.9995
8088,Cr4La8O24,2.0339,15,4.47878,8.590326,14.56801,73.07593,90.0,90.0
8089,Cu4Sb4Se8,0.7345,62,4.039177,6.44474,15.09209,90.0,90.0,90.0
8090,Bi4Fe8O18,1.3365,55,6.034819,7.957503,8.380585,90.0,90.0,90.0
8091,Ho4O14Sn4,2.1953,227,7.46914,7.46914,7.46914,60.0,60.0,60.0
8092,Li4O6Re2,0.7117,167,5.799192,5.799192,5.799192,51.80747,51.80747,51.80747
8093,As4K12Se16,1.162,62,9.552359,10.16433,11.07547,90.0,90.0,90.0
8094,Mn4O10Sr4,0.1242,55,3.856813,5.627553,11.02619,90.0,90.0,90.0
8095,Au4Cs4O4,1.658,139,7.989064,7.989064,7.989064,98.93083,98.93083,133.5918
8096,H2Li2S2,3.4818,40,3.944184,3.944184,6.173456,90.0,90.0,91.15454
8097,O32S8Zr4,3.5739,62,5.551912,8.730364999999999,11.15389,89.99996,90.0,90.0
8098,Cs6F14Ti2,3.2866,127,8.473,8.473,6.313,90.0,90.0,90.0
8099,Fe2Ga1V1,0.6974,225,4.047002,4.047002,4.047002,60.0,60.0,60.0
8100,Cr4O8Si2,1.8983,70,7.57283,6.388552,5.753114,76.97726,55.27722,47.74552
8101,F24Fe8Rb4,0.9666,62,7.15417,7.577072,10.35847,90.0,90.0,90.0
8102,C1K4O4,1.4415,121,6.536511,6.536511,6.536511,99.83813,99.83813,131.168
8103,O16Pb8Sn4,1.8307,135,6.564368,8.956098,8.966924,90.0,90.0,90.0
8104,Br4H20O8,4.3572,14,12.64639,4.261823,6.985759,79.26802,90.0,90.0
8105,Ca4Fe4O12,0.5538000000000001,12,6.333925,5.687749,11.32644,59.85662,107.1533,125.9667
8106,In1K1O2,2.2089,166,6.4738109999999995,6.473778,6.473778,29.94102,29.94086,29.94086
8107,Cl6Cs2U1,3.0085,164,7.691635,7.691631,6.288299,89.9998,90.00019,120.0012
8108,S8Tl1V5,0.3885,12,9.307334,9.307334,8.635798,74.62166,74.62166,22.0567
8109,Cs8Cu40S24,0.9994000000000001,114,13.08261,13.08261,7.865715,90.0,90.0,90.0
8110,I10In2Pb4,1.8538999999999999,140,10.01241,10.01241,10.01241,126.6997,126.6997,78.74109
8111,Ag1Cr1Se2,0.3553,160,7.449609,7.449609,7.449609,29.57481,29.57481,29.57481
8112,Gd1K1Te2,1.1107,166,8.657644,8.657644,8.657644,30.41949,30.41949,30.41949
8113,F2H1Na1,6.8448,166,5.061019,5.061019,5.061019,40.51163,40.51163,40.51163
8114,Br10K2Sn4,2.3513,140,9.596105,9.596105,9.596105,127.4719,127.4719,77.48202
8115,Cs2Cu1F6,0.46130000000000004,139,6.47944,6.47944,6.352661,60.64517,60.64517,58.70966
8116,Al8O72P24,5.6199,220,12.06673,12.06673,12.06673,109.4712,109.4712,109.4712
8117,Bi4F20K8,4.7712,62,6.711964,7.580775,11.63505,90.0,90.0,90.0
8118,Au1Cd1F3,0.4446,221,4.398015,4.398015,4.398015,90.0,90.0,90.0
8119,La8O20Ru4,0.8287,14,5.983363,8.036374,9.38249,79.58636,90.0,90.0
8120,Mg4O8Sn2,1.5203,227,6.178424,6.178424,6.178424,60.0,60.0,60.0
8121,Hf1Ir2Mo1,0.0263,216,4.512317,4.512317,4.512317,60.0,60.0,60.0
8122,Au1C2Li1,1.8595000000000002,187,3.888583,3.888748,5.238298,90.0,90.0,119.9986
8123,F16Fe4Rb4,2.6416,57,7.805185,7.8354669999999995,6.354117,90.0,90.0,90.0
8124,O16Se2Te6,2.6401,2,5.034201,7.018936,11.805250000000001,77.65141,78.58786,69.35161
8125,Al3O12P3,5.6297,152,5.039581,5.039413,11.13964,90.00221,89.99866,120.0052
8126,Li12O14Zr4,3.9222,15,6.088093,6.088065,10.32063,81.11547,81.11524,59.7268
8127,Co1Sn1V1,0.7872,216,4.113571,4.113571,4.113571,60.0,60.0,60.0
8128,O20Si4Sr12,3.7736,130,7.118888,7.118888,10.83942,90.0,90.0,90.0
8129,O8P2Tl6,2.6173,173,8.714994,8.715133999999999,5.293567,90.0,90.0,120.0049
8130,As4Ba4Zn2,0.6743,72,8.305025,8.305025,8.305025,133.1018,130.4484,70.6062
8131,O12Ta4V2,0.8087000000000001,136,4.843645,4.843645,9.277896,90.0,90.0,90.0
8132,Ba12O4Sb8,0.33230000000000004,55,5.153322,12.61268,12.91841,90.0,90.0,90.0
8133,Ba4S12Zr4,1.0198,62,7.185621,7.057591,10.07189,90.0,90.0,90.0
8134,Ba2Ni2O4,1.9803000000000002,63,5.492509,5.492509,4.782767,90.0,90.0,116.2042
8135,N4O2Si4,4.9511,36,5.264247,5.264247,4.888476,90.0,90.0,116.6596
8136,Ca8O16Si4,4.2536,14,6.082537,5.59769,12.16491,84.60678,90.0,90.0
8137,As1I3S24,2.1133,160,15.16012,15.16104,15.16066,118.7423,118.7365,118.7389
8138,C4Li2O4,2.218,12,6.035522,6.035522,3.367067,83.16325,83.16325,106.4916
8139,O36Te6Zn18,1.7331,15,8.633255,8.633255,10.33594,87.38159,87.38159,61.5895
8140,Bi4O14Sn4,2.6269,227,7.668364,7.668364,7.668364,60.0,60.0,60.0
8141,Cu4O16S4,1.1883,62,4.92441,6.729793,8.479195,90.0,90.0,90.0
8142,Ga6O18Y6,2.9478,185,6.115053,6.115053,11.72207,90.0,90.0,120.0019
8143,Ti1W2Zn1,0.20950000000000002,216,4.461682,4.461682,4.461682,60.0,60.0,60.0
8144,Au1F3Zn1,1.2151,221,3.993922,3.993922,3.993922,90.0,90.0,90.0
8145,B1Ir1La2,0.1723,216,4.810444,4.810444,4.810444,60.0,60.0,60.0
8146,F28Sb4Xe4,2.7731,14,11.20785,5.728804,11.50151,85.59729,90.0,90.0
8147,O8Sc2V2,2.7393,141,5.80637,5.80637,5.80637,106.793,106.793,114.9717
8148,Ni1Sb1Tb1,0.1202,216,4.487898,4.487898,4.487898,60.0,60.0,60.0
8149,Hg1Mo2Zr1,0.0883,216,4.703972,4.703972,4.703972,60.0,60.0,60.0
8150,Ca4S16Y8,1.5336,62,3.909606,13.03782,13.18362,90.0,90.0,90.0
8151,O16Ti4Zn8,3.1011,91,5.989583,5.989583,8.420894,90.0,90.0,90.0
8152,Cu2F6K2,1.2877,140,5.7848749999999995,5.7848749999999995,5.7848749999999995,118.3628,118.3628,92.85985
8153,B2F10Li4,7.534,141,7.112687,7.112687,7.112687,136.3095,136.3095,63.502250000000004
8154,Hf4Nd4O14,3.7692,227,7.591882,7.591882,7.591882,60.0,60.0,60.0
8155,Cr4O12Te2,1.2772999999999999,136,4.623424,4.623424,9.209768,90.0,90.0,90.0
8156,As8Na4O22,2.075,15,6.268975,6.268975,11.75674,80.5616,80.5616,85.28465
8157,In8S16Tl8,1.3855,15,7.8689979999999995,7.8689979999999995,15.37762,82.63332,82.63332,90.00345
8158,Co1Li1O2,0.40090000000000003,12,5.215678,5.042807,5.044362,32.42308,33.73987,33.73296
8159,Ga2Hg1Se4,0.9526,82,6.878781,6.878781,6.878781,129.5889,129.5889,74.06482
8160,Ag4Br28W12,2.7998000000000003,14,15.95188,9.855946,10.01958,60.5146,89.99792,90.00053
8161,In1Na1Se2,1.1043,166,7.406057,7.406057,7.406057,31.5359,31.5359,31.5359
8162,Ca4O12Rh4,0.23670000000000002,62,5.372752,5.685548,7.69341,90.0,90.0,90.0
8163,Er1Te2Tl1,0.6179,166,8.561817,8.561817,8.561817,29.91228,29.91228,29.91228
8164,Cu2Ga2S4,1.1199,122,6.518655,6.518655,6.518655,131.2375,131.2375,71.43596
8165,Cr2I12Tl8,1.1512,128,9.308221,9.308221,9.875014,90.0,90.0,90.0
8166,Na4O12V4,3.0137,62,3.657957,5.478113,14.53538,90.0,90.0,90.0
8167,Cu8O18P4,1.1877,2,7.655517,8.181705000000001,6.330869,66.34301,81.9768,74.45687
8168,O14Sr6Zr4,3.0906,123,4.192962,4.192199,21.15065,90.0,90.0,90.0
8169,C1Cs4O4,1.6383,215,6.275316,6.275316,6.275316,90.0,90.0,90.0
8170,Ba6F26Mg7,6.8136,71,10.29296,10.29296,10.29296,146.5667,106.5092,83.18306
8171,B4Ca2H16,5.0768,81,6.967453,6.967453,4.345327,90.0,90.0,90.0
8172,O4S4Zr4,2.4152,198,5.773949,5.773949,5.773949,90.0,90.0,90.0
8173,O28P8Si4,5.8131,14,6.387981,4.8124,14.96132,89.93155,90.0,90.0
8174,F20K4Te4,5.2048,57,4.88847,9.463958,11.49438,90.0,90.0,90.0
8175,C4Ca16N16,1.8072,62,3.580079,11.49742,13.94785,89.99792,90.0,90.0
8176,Ho6O14Re2,0.5243,20,6.46938,6.46938,7.417874,90.0,90.0,108.884
8177,Ag2In2Se4,0.40130000000000005,122,7.432536,7.432536,7.432536,130.4826,130.4826,72.6364
8178,Mg2O6Si2,5.7894,148,5.344449,5.344449,5.344449,53.187,53.187,53.187
8179,C16N24Pb4,3.6419,62,4.048567,12.426120000000001,13.64666,90.0,90.0,90.0
8180,Cs1F3Mg1,6.721,221,4.248652,4.248652,4.248652,90.0,90.0,90.0
8181,C1Na4O4,1.5946,160,5.188567,5.188567,5.188567,75.16078,75.16078,75.16078
8182,F3Na1Pb1,1.9868999999999999,221,4.814724,4.814724,4.814724,90.0,90.0,90.0
8183,Cd1Ga2S4,2.2114,82,6.509457,6.509457,6.509457,128.8,128.8,75.33255
8184,Li6S12Sb6,1.2111,148,8.690899,8.690899,8.690899,107.6392,107.6392,107.6392
8185,Mn2Mo2N4,0.3723,194,2.960286,2.9603,11.27822,90.0,90.0,120.0002
8186,F16In4Li4,4.1563,60,4.805639,5.072798,11.97479,90.0,90.0,90.0
8187,O3Si1Tc1,1.5122,221,3.650759,3.650759,3.650759,90.0,90.0,90.0
8188,F3Y1Zn1,2.5245,221,4.480807,4.480807,4.480807,90.0,90.0,90.0
8189,Cs3N3O6,2.3291,152,6.067192,6.067192,8.126756,90.0,90.0,120.0
8190,Ca2O6Si2,3.6776,74,5.099932,5.099718,5.099499,119.9437,119.6833,90.32831
8191,Bi8Cu4O16,0.8332,130,8.531689,8.531689,6.023485,90.0,90.0,90.0
8192,Al4Na4O8,3.8214,33,5.27879,5.455449,7.059425,90.0,90.0,90.0
8193,Cd4K8O8,1.4062000000000001,60,6.274805,6.299089,10.16032,90.0,90.0,90.0
8194,Hf1O3Sr1,3.7312000000000003,221,4.140711,4.140711,4.140711,90.0,90.0,90.0
8195,O24Se8Sn4,2.0808,205,8.42775,8.42775,8.42775,90.0,90.0,90.0
8196,Br6Cs2U1,1.9099,225,8.150325,8.150325,8.150325,60.0,60.0,60.0
8197,Ba8O12Pt2,2.0019,167,7.367259,7.367259,7.367259,89.6525,89.6525,89.6525
8198,O8P2Y2,5.8026,141,5.79532,5.79532,5.79532,105.9257,105.9257,116.8218
8199,Fe1Hf2Hg1,0.2016,216,4.660028,4.660028,4.660028,60.0,60.0,60.0
8200,F12Rb4Tb2,0.019200000000000002,15,7.00388,7.002176,7.53161,89.37651,89.38082,117.9255
8201,Cl4Na4O12,5.618,198,6.667939,6.667939,6.667939,90.0,90.0,90.0
8202,K8O8Sn2,2.1692,2,6.645659,9.918332,6.646003,71.76235,67.31367,79.97133
8203,O16Sn4Sr8,2.2524,138,5.970179,5.970179,12.45862,90.0,90.0,90.0
8204,Gd6Nb2O14,2.9847,20,6.586426,6.586426,7.573437,90.0,90.0,108.6457
8205,Ba4Ho8S16,1.7427000000000001,62,4.042604,12.29906,14.53714,90.0,90.0,90.0
8206,Ge4K8Se16,1.7450999999999999,14,8.452102,9.156379,12.26264,73.56146,90.0,90.0
8207,As2Be2Li2,1.0053,129,3.7483589999999998,3.7483589999999998,6.218115,90.0,90.0,90.0
8208,C10Ca10O30,4.8787,2,6.393668,7.7701329999999995,12.72322,94.17404,98.85499,106.1825
8209,Ga2O12Y6,3.7068,36,7.161598,7.161598,5.454645,90.0,90.0,102.8357
8210,Ho12N4Se12,1.5308000000000002,15,7.690107,7.690107,12.5647,73.05225,73.05225,82.45848
8211,Er4O14V4,0.8473,227,7.111099,7.111099,7.111099,60.0,60.0,60.0
8212,Cu3Te4V1,0.7031000000000001,215,5.963471,5.963471,5.963471,90.0,90.0,90.0
8213,As3Ga3O12,3.1053,152,5.099687,5.099951,11.61074,90.00139,90.00037,119.9999
8214,Mn4O16Te6,2.4961,15,7.110435,7.110211,12.04372,82.80902,82.80654,45.52548
8215,Au1C2Rb1,2.5761000000000003,123,4.578882,4.578882,5.241241,90.0,90.0,90.0
8216,Li56N32P8,3.4748,218,9.40271,9.40271,9.40271,90.0,90.0,90.0
8217,I4Pd2Te2,0.6733,2,4.485671,7.260161,9.136192,68.12729,80.29732,81.84572
8218,Al4Cl16Li4,5.5491,14,6.864578,7.064735,13.20057,87.22107,90.0,90.0
8219,Be2N4Si2,3.5598,122,4.996427,4.996427,4.996427,131.8824,131.8824,70.41481
8220,Dy4O22Te8,3.2351,15,6.755423,6.755423,16.40928,76.29984,76.29984,45.02524
8221,Na1Nd1Se2,1.7557,166,7.462231,7.462231,7.462231,33.45229,33.45229,33.45229
8222,Hf4O32Te12,3.8507,206,9.98705,9.98705,9.98705,109.4712,109.4712,109.4712
8223,Br16Cs4Tl4,1.9458000000000002,19,7.035529,7.911334,18.38172,90.0,90.0,90.0
8224,Ba12N48P24,3.91,205,10.33839,10.33839,10.33839,90.0,90.0,90.0
8225,O14Pr4Sn4,2.1716,227,7.675651,7.675651,7.675651,60.0,60.0,60.0
8226,Ag1Cr1O2,1.6207,166,6.514134,6.514134,6.514134,27.15616,27.15616,27.15616
8227,F12Li4Ru2,0.3619,136,4.7224319999999995,4.7224319999999995,9.338474,90.0,90.0,90.0
8228,Bi2Fe2O6,1.669,161,5.743859,5.743859,5.743859,58.7912,58.7912,58.7912
8229,As4Ni6O16,2.03,64,6.440721,6.440721,8.270708,90.00852,89.99148,124.3766
8230,Ge4Na8Se12,1.6024,14,16.37016,6.141419,7.177822,66.07124,90.0,90.0
8231,La4O16Ta4,3.691,14,5.658773,7.812575,7.908586,78.58403,90.0,90.0
8232,Ba1O3Ti1,2.1302,221,4.061446,4.061446,4.061446,90.0,90.0,90.0
8233,O12Sn2Ta4,2.5263999999999998,9,9.126523,9.126523,5.646724,88.41065,88.41065,31.41642
8234,B2H8Na2,6.3236,137,4.3211,4.3211,5.901989,90.0,90.0,90.0
8235,F3Ru1Xe1,0.4832,221,4.4755009999999995,4.4755009999999995,4.4755009999999995,90.0,90.0,90.0
8236,C1Na4O4,3.1878,8,4.825975,4.825975,5.555752,64.81429,64.81429,90.25745
8237,Al6O24V6,3.0353,2,9.661364,7.850244,6.621979,78.53866,66.37499,76.135
8238,O20P4V4,1.8608,62,6.235714,7.228906,7.819317,90.0,90.0,90.0
8239,C1Cl2Gd2,0.44480000000000003,164,3.777331,3.777215,9.439951,90.00105,90.00006,120.0007
8240,Fe2O4Rb2,1.6758000000000002,227,6.130672,6.130672,6.130672,60.0,60.0,60.0
8241,Br9Rb3Sb2,1.9091,164,8.017509,8.016501,9.819094,89.98877,90.0,120.0042
8242,K4N12O16,2.7046,14,11.22019,7.584251,7.048581,85.6953,90.0,90.0
8243,Cl2K2O6,5.4656,11,5.707443,4.75399,7.232105,70.80965,90.0,90.0
8244,Ba2O18V8,0.9578000000000001,13,5.085168,7.955537,9.436907,69.44978,90.0,90.0
8245,B18Cs2H28,3.7922000000000002,2,5.918443,8.920677,10.13424,87.62068,82.88239,81.39721
8246,Hf4S12Sr4,1.4974,62,6.76556,7.104898,9.775855,90.0,90.0,90.0
8247,I8Se2Tl12,1.6227,128,9.400324,9.400324,9.933479,90.0,90.0,90.0
8248,Ga1Mn1Ti2,0.0609,216,4.323855,4.323855,4.323855,60.0,60.0,60.0
8249,Mo8O30Tb4,3.2244,14,9.734241,6.977192,10.81663,75.0664,90.0,90.0
8250,Hg4K8S8,2.1194,57,7.413934,8.123146,10.84192,90.0,90.0,90.0
8251,C8Cd2N12,3.0392,14,9.240558,6.245409,7.879064,93.42636,90.0,90.0
8252,Li12O14Tb4,1.3889,14,6.276388,5.965888,9.971566,57.74372,90.0,90.0
8253,O16S4Sn4,3.9487,62,5.4453700000000005,7.313031,8.978246,90.0,90.0,90.0
8254,Cu16S12Si2,0.9564,31,6.911348,7.019181,9.745284,90.0,90.0,90.0
8255,F3Os1Tl1,0.36860000000000004,221,4.328982,4.328982,4.328982,90.0,90.0,90.0
8256,Ba3O15Ti6,2.2098,5,8.880991,8.881003,9.629938,77.26332,77.26342,25.8427
8257,Bi8Cu4O16,0.833,130,8.539327,8.539327,6.026064,90.0,90.0,90.0
8258,Li12O24Se6,3.3796,148,9.489831,9.489831,9.489831,106.4646,106.4646,106.4646
8259,F2O2Tb2,4.9419,166,6.781976,6.781976,6.781976,32.88713,32.88713,32.88713
8260,Ba2Cl2F2,5.4407,129,4.455905,4.455905,7.345057,90.0,90.0,90.0
8261,Hg6S8Tl4,1.6149,15,6.966769,6.966769,13.68489,68.96354,68.96354,57.92706
8262,Mg6O16P4,4.697,14,9.916938,5.5860009999999996,5.556125,107.7183,90.0,90.0
8263,Cu4O12Se4,1.1798,62,5.423077,6.097707,7.365856,90.0,90.0,90.0
8264,Gd4S12Sc4,1.9224,62,6.480697,7.107905,9.644491,90.0,90.0,90.0
8265,F6K1P1,7.0533,148,4.881132,4.881132,4.881132,97.67785,97.67785,97.67785