,full_formula,band_gap,spacegroup.number,structure.lattice.a,structure.lattice.b,structure.lattice.c,structure.lattice.alpha,structure.lattice.beta,structure.lattice.gamma
2508,O8Si4,5.524,20,6.036573,6.036573,4.762857,90.0,90.0,93.15569
2509,B2N2,5.2143,186,2.55481,2.554761,4.225863,90.0,90.0,120.0006
2510,Cl1Rb1,4.7672,221,4.000981,4.000981,4.000981,90.0,90.0,90.0
2511,Al4O6,5.8494,167,5.180834,5.180834,5.180834,55.29696,55.29696,55.29696
2512,O6Si3,5.7158999999999995,154,4.973092,4.972398,5.486589,90.00233,90.0024,120.0003
2513,Cd14I28,2.2727,156,4.313833,4.313818,101.6335,90.00156,90.0,120.0001
2514,Se1Sr1,2.2318,225,4.458756,4.458756,4.458756,60.0,60.0,60.0
2515,F1Tl1,2.1934,225,4.011342,4.012879,4.008556,60.01028,60.04833,59.9414
2516,K10Te6,0.2099,87,10.32565,10.32565,10.32565,95.68388,95.68388,143.3139
2517,Ni1O1,1.7916,225,2.988763,2.988763,2.988763,60.0,60.0,60.0
2518,P8S8,2.4072,15,7.138116,7.138116,9.490287,80.80443,80.80443,85.32353
2519,Eu1S1,0.7168,225,4.245238,4.245238,4.245238,60.0,60.0,60.0
2520,Ru16Si24,0.5951000000000001,60,5.550528,8.990956,11.09093,90.0,90.0,90.0
2521,B1P1,1.2471,216,3.214441,3.214441,3.214441,60.0,60.0,60.0
2522,Se6U2,1.1172,11,4.129053,5.766707,9.853353,96.05792,90.0,90.0
2523,Mg2Si1,0.23500000000000001,225,4.490503,4.490503,4.490503,60.0,60.0,60.0
2524,Cd1S1,0.4116,225,3.875777,3.875777,3.875777,60.0,60.0,60.0
2525,Mg2Si1,0.23500000000000001,225,4.4906,4.4906,4.4906,60.0,60.0,60.0
2526,Ag2I2,2.0002,186,4.699082,4.698628,7.692053,90.0,90.0,120.0032
2527,O4Si2,5.0062,136,4.232922,4.232922,2.693314,90.0,90.0,90.0
2528,F20Nb4,4.9889,12,8.903313,8.903313,5.332827,87.56882,87.56882,112.6617
2529,Cl1K1,5.0387,225,4.516263,4.516263,4.516263,60.0,60.0,60.0
2530,Mg1Se1,1.7714,225,3.892023,3.892023,3.892023,60.0,60.0,60.0
2531,Cs2N6,4.2179,140,6.26996,6.26996,6.26996,115.4515,115.4515,98.07722
2532,O8Si4,5.5446,92,5.034342,5.034342,7.000721,90.0,90.0,90.0
2533,C2Yb1,0.20220000000000002,139,4.207514,4.207514,4.207514,125.4384,125.4384,80.81314
2534,Al1N1,3.3056,216,3.112796,3.112796,3.112796,60.0,60.0,60.0
2535,Cl2Mg1,5.5127,164,3.6639,3.6639,6.136829,90.00361,89.99639,120.0048
2536,C6F12,4.9107,2,6.256089,6.409604,6.798971,92.3375,109.5216,94.26589
2537,Cd4O8,1.4191,205,5.384883,5.384883,5.384883,90.0,90.0,90.0
2538,Cd8Sb8,0.0862,61,6.560574,8.410641,8.713706,90.0,90.0,90.0
2539,Al4O6,5.8481000000000005,167,5.180671,5.180671,5.180671,55.30121,55.30121,55.30121
2540,Ca1O2,2.7622,139,4.184094,4.184094,4.184094,133.6006,133.6006,67.71254
2541,Ce2O3,2.8185000000000002,12,3.924014,3.924014,6.163574,89.6191,90.3809,119.5521
2542,Al4C3,1.3227,166,8.592687,8.592687,8.592687,22.50101,22.50101,22.50101
2543,B2Cl6,4.7162,176,6.526265,6.52822,7.725992,90.0,90.0,120.0016
2544,Se6Th2,1.2118,11,4.317072,5.882117,10.2541,95.37139,90.0,90.0
2545,Mg2Si1,0.23500000000000001,225,4.490503,4.490503,4.490503,60.0,60.0,60.0
2546,O2Zn2,1.8188,186,3.195626,3.195626,5.13828,90.0,90.0,119.9966
2547,Cl6Tb2,4.1055,176,7.530499,7.529432,4.020069,90.0,90.0,120.0029
2548,Al1N1,3.3058,216,3.112338,3.112338,3.112338,60.0,60.0,60.0
2549,S12Sb8,1.2817,62,3.8699529999999998,11.23412,12.15367,90.0,90.0,90.0
2550,O6Si3,5.5365,180,5.107713,5.107713,5.585286,90.0,90.0,120.0001
2551,C4O8,6.6392,205,5.804406,5.804406,5.804406,90.0,90.0,90.0
2552,O16Si8,5.5473,15,7.235526,7.235526,7.218233,75.54879,75.54879,119.8074
2553,In12Ru4,0.1786,136,7.054512,7.054512,7.287936,90.0,90.0,90.0
2554,Er16O24,3.9664,206,9.130908,9.130908,9.130908,109.4712,109.4712,109.4712
2555,Si4Sr8,0.3509,62,5.156753,8.132807,9.618442,90.0,90.0,90.0
2556,O32Si16,5.4329,140,10.98516,10.98516,10.98516,99.80861,99.80861,131.2454
2557,O24U8,2.8064999999999998,15,11.13986,11.48442,6.833118,69.686,68.67297,35.11666
2558,F2Pb1,4.3968,225,4.238427,4.238427,4.238427,60.0,60.0,60.0
2559,O4Ti2,2.2669,136,4.672005,4.672005,3.023594,90.0,90.0,90.0
2560,O2Zn2,1.8107000000000002,186,3.189737,3.189737,5.154633,90.0,90.0,119.9964
2561,Sb8Se12,0.7553000000000001,62,4.031096,11.54893,12.80511,90.0,90.0,90.0
2562,Li2O1,4.9042,225,3.28858,3.28858,3.28858,60.0,60.0,60.0
2563,Ag2Cl2,1.9594,11,3.983214,3.961302,5.632465,89.43821,90.0,90.0
2564,I1Na1,3.618,225,4.589993,4.589993,4.589993,60.0,60.0,60.0
2565,K2S1,2.3205999999999998,225,5.278938,5.278938,5.278938,60.0,60.0,60.0
2566,O2Pt2,0.2001,131,3.151372,3.151372,5.33835,90.0,90.0,90.0
2567,Se4Tl4,0.108,140,6.807939,6.807939,6.807939,105.9564,105.9564,116.7558
2568,Se1Zn1,1.7001,216,4.010003,4.010003,4.010003,60.0,60.0,60.0
2569,Al4O6,5.8441,167,5.180155,5.180155,5.180155,55.31412,55.31412,55.31412
2570,As16S16,0.1705,2,10.65937,15.12367,8.119781,130.5116,88.226,93.76464
2571,Al4O6,5.8498,167,5.181271,5.181271,5.181271,55.29029,55.29029,55.29029
2572,In2Se2,0.3677,160,8.912709,8.912709,8.912709,26.41753,26.41753,26.41753
2573,S10Zn10,2.6888,186,3.797818,3.79782,31.03041,90.0,90.0,120.0
2574,B6O9,6.2591,152,4.414632,4.414632,8.862532,90.0,90.0,120.0
2575,Ge16Na16,0.6795,14,6.66897,11.39593,11.87341,64.08186,90.0,90.0
2576,I8O20,2.6746,14,5.242463,8.454532,11.11744,72.77451,90.0,90.0
2577,O24Yb16,0.3937,206,9.006855,9.006855,9.006855,109.4712,109.4712,109.4712
2578,Ca6N4,0.7709,167,6.60492,6.60492,6.60492,55.93783,55.93783,55.93783
2579,O16V8,0.7439,87,8.55163,8.55163,3.908816,90.0,90.0,90.0
2580,C2O4,6.3481,136,4.311209,4.311209,5.161064,90.0,90.0,90.0
2581,Ce16O24,2.8837,206,9.851306,9.851306,9.851306,109.4712,109.4712,109.4712
2582,Ir24Si40,0.9447000000000001,14,14.21203,6.434538,10.44196,83.13708,90.0,90.0
2583,Mg1O1,4.4693,225,3.007231,3.007231,3.007231,60.0,60.0,60.0
2584,Se18V4,0.9825,15,8.714105,8.714105,8.547298,83.44812,83.44812,101.4536
2585,As6Si6,1.1985999999999999,12,8.64707,8.64707,9.919022,71.29978,71.29978,24.74834
2586,Er16O24,3.9657,206,9.136969,9.136969,9.136969,109.4712,109.4712,109.4712
2587,O4Zr2,3.8757,137,3.642213,3.642213,5.306659,90.0,90.0,90.0
2588,Hg2I2,1.6269,139,6.944512,6.944512,6.944512,136.4717,136.4717,63.25191
2589,Os2Sb4,0.46390000000000003,58,3.248586,5.999285,6.772153,90.0,90.0,90.0
2590,S12Sb8,1.2824,62,3.870014,11.23538,12.1553,90.0,90.0,90.0
2591,B2N2,4.4656,194,2.512269,2.512594,8.090005,90.0,90.0,119.9957
2592,Cl6Gd4,0.22490000000000002,12,8.11548,8.11548,10.41795,62.06685,62.06685,28.02037
2593,F1Na1,6.1499,225,3.310137,3.310137,3.310137,60.0,60.0,60.0
2594,Cd10I20,2.3711,156,4.3107109999999995,4.3107109999999995,72.29157,90.00239,89.99761,120.001
2595,Ba1O2,2.2298,139,4.430673,4.430673,4.430673,128.2854,128.2854,76.16311
2596,F4Pb1,1.8639999999999999,139,5.199454,5.199454,5.199454,130.2689,130.2689,72.97725
2597,Cl1Rb1,4.7547,221,4.005002,4.005002,4.005002,90.0,90.0,90.0
2598,Li2S1,3.3846,225,4.043945,4.043945,4.043945,60.0,60.0,60.0
2599,O4Zr2,3.8838,137,3.644815,3.644815,5.324324,90.0,90.0,90.0
2600,O8Sn6,1.3094999999999999,13,5.675009,6.793914,8.035062,82.83024,90.0,90.0
2601,N6Tl2,1.8052000000000001,140,5.8385169999999995,5.8385169999999995,5.8385169999999995,114.1193,114.1193,100.5285
2602,O4Zr2,3.8478,137,3.644273,3.644273,5.289864,90.0,90.0,90.0
2603,Mn1S1,1.283,216,4.057093,4.057093,4.057093,60.0,60.0,60.0
2604,O6Si3,5.7085,154,4.980102,4.97963,5.503281,89.99797,89.99986,119.9971
2605,Pb1S1,0.46530000000000005,225,4.246152,4.246152,4.246152,60.0,60.0,60.0
2606,Cl1Cs1,5.0067,221,4.202873,4.202873,4.202873,90.0,90.0,90.0
2607,Al4O6,5.8494,167,5.180756,5.180756,5.180756,55.29806,55.29806,55.29806
2608,B12C3,1.5225,166,5.187171,5.187175,5.187179,65.90741,65.90765,65.90789
2609,Cs8S4,2.0952,62,5.44501,8.823532,10.55254,90.0,90.0,90.0
2610,N16Si12,4.654,159,7.808523,7.808523,5.658814,90.00005,89.9999,120.0
2611,I1Rb1,3.7955,225,5.279672,5.279672,5.279672,60.0,60.0,60.0
2612,Br2In2,1.2552,63,6.623654,6.623654,4.738872,90.0,90.0,140.1295
2613,O8Si4,5.5601,92,4.999727,4.999727,6.952673,90.0,90.0,90.0
2614,Ho12S18,1.4658,11,4.016357,10.16784,17.58662,81.34584,90.0,90.0
2615,Ca4Cl8,5.5921,60,6.33629,6.976271,7.728105,90.0,90.0,90.0
2616,O3U1,2.1481,221,4.20017,4.20017,4.20017,90.0,90.0,90.0
2617,Mn1O1,0.1746,225,3.194877,3.194877,3.194877,60.0,60.0,60.0
2618,Rb8Se20,0.8300000000000001,19,7.034546,7.313697,18.8952,90.0,90.0,90.0
2619,Mn1S1,0.8190000000000001,225,3.7359489999999997,3.7359489999999997,3.7359489999999997,60.0,60.0,60.0
2620,S2Ti1,0.5334,164,3.473691,3.47369,6.233547,89.99983,90.00016,120.0006
2621,O24Sb16,2.4614000000000003,19,7.719125,7.8337769999999995,12.10001,90.0,90.0,90.0
2622,Hf2O4,4.6741,137,3.590847,3.590847,5.23389,90.0,90.0,90.0
2623,Cl1K1,5.0325,225,4.519131,4.519131,4.519131,60.0,60.0,60.0
2624,O12Si6,5.4901,194,9.216013,9.216013,5.259917,90.0,90.0,120.0
2625,Cd1S1,1.1859,216,4.183541,4.183541,4.183541,60.0,60.0,60.0
2626,O8Si4,5.3641,194,5.276588,5.276588,8.610242,90.0,90.0,120.0002
2627,Cl1Rb1,4.7618,221,4.002728,4.002728,4.002728,90.0,90.0,90.0
2628,Fe4Si4,0.8702000000000001,198,4.422447,4.422447,4.422447,90.0,90.0,90.0
2629,N16Si12,4.6599,159,7.807084,7.807084,5.660469,89.99999,89.99999,119.9997
2630,Ba1Se1,1.9485999999999999,225,4.727376,4.727376,4.727376,60.0,60.0,60.0
2631,O16Si8,5.5539000000000005,15,7.23135,7.23135,7.214797,75.60586,75.60586,119.8872
2632,O2Th1,4.541,225,4.119508,4.119508,4.119508,60.0,60.0,60.0
2633,Cu8P28,0.7977000000000001,12,7.349329,7.349329,14.72383,74.76465,74.76465,59.63709
2634,O8Zr4,4.0951,60,5.299215,5.836647,5.028948,90.0,90.0,90.0
2635,Ca1F2,7.1319,225,3.897037,3.897037,3.897037,60.0,60.0,60.0
2636,O4Ti2,2.5627,141,5.592073,5.592073,5.592073,139.5965,139.5965,58.46641
2637,K2O4,0.1149,15,5.235717,5.235717,7.679059,56.77711,56.77711,46.9397
2638,Br24Ga12,3.3854,161,13.0875,13.0875,13.0875,115.1825,115.1825,115.1825
2639,Te4V3,0.2933,12,7.620137,7.620137,8.171842,91.4544,91.4544,33.14041
2640,O2Pt1,2.0307,164,3.14096,3.14096,4.604052,89.97812,90.02188,119.9826
2641,Co6S8,0.4234,227,6.8291830000000004,6.8291830000000004,6.8291830000000004,60.0,60.0,60.0
2642,Mn1Se1,0.3985,225,3.9156940000000002,3.9156940000000002,3.9156940000000002,60.0,60.0,60.0
2643,Ge1Mg2,0.191,225,4.526238,4.526238,4.526238,60.0,60.0,60.0
2644,As16S16,1.952,14,14.5458,7.080819,9.960088,74.22836,90.0,90.0
2645,O16Pb12,1.1324,135,9.029258,9.029258,6.780505,90.0,90.0,90.0
2646,Eu1S1,0.7167,225,4.24521,4.24521,4.24521,60.0,60.0,60.0
2647,As2B12,2.6564,166,5.332877,5.332877,5.332877,70.54668,70.54668,70.54668
2648,Ge3O6,3.1514,152,5.033798,5.032053,5.758373,90.0003,90.00698,119.9885
2649,Ge3O6,3.1525,152,5.0659089999999996,5.0659089999999996,5.76122,90.0,90.0,120.0
2650,Br40Nb8,1.7034,62,6.665316,13.97238,19.51567,90.0,90.0,90.0
2651,I2Tl2,2.1353,63,7.112904,7.112904,5.238384,90.0,90.0,141.1099
2652,O8Zr4,3.4814,14,5.277299,5.225946,5.410018,80.25167,90.0,90.0
2653,O8Si4,5.5295,92,5.058181,5.058181,7.067375,90.0,90.0,90.0
2654,Ce1O2,2.4184,225,3.885067,3.885067,3.885067,60.0,60.0,60.0
2655,O16Si8,5.5411,15,7.240226,7.240226,7.24218,75.4922,75.4922,119.8019
2656,N6Rb2,4.1785,140,5.939564,5.939564,5.939564,114.6179,114.6179,99.60589
2657,Cd8N48,2.8309,61,6.550133,7.923284,16.27632,90.0,90.0,90.0
2658,Ni2S2,0.20400000000000001,194,3.534547,3.534458,5.637572,90.0,90.0,120.0008
2659,Ba2N12,3.8134,11,4.460564,5.522274,9.765453,80.45917,90.0,90.0
2660,Mo2S4,1.2619,194,3.200409,3.200409,13.74941,90.0,90.0,119.9993
2661,Cl1K1,5.0395,225,4.51595,4.51595,4.51595,60.0,60.0,60.0
2662,O6Si3,5.6822,152,5.018213,5.018213,5.507751,90.0,90.0,120.0
2663,Br2Mn1,3.3914,166,7.00069,7.00069,7.00069,32.55503,32.55503,32.55503
2664,Ga1P1,1.6437,216,3.88385,3.88385,3.88385,60.0,60.0,60.0
2665,P32Re8,0.9255,61,6.278076,9.311466,10.95892,90.0,90.0,90.0
2666,O1Zn1,2.1228,225,2.978334,2.978334,2.978334,60.0,60.0,60.0
2667,As16S16,2.3951000000000002,14,18.62075,7.709874,9.837095,83.28325,90.0,90.0
2668,Al1P1,1.6283,216,3.8927959999999997,3.8927959999999997,3.8927959999999997,60.0,60.0,60.0
2669,O8Ti4,2.2613,141,6.044075,6.044075,6.044075,120.2731,120.2731,89.52758
2670,F4Tl4,3.1078,57,5.345072,5.602743,6.340095,90.0,90.0,90.0
2671,Cd10I20,2.4119,156,4.310938,4.310914,72.5599,90.00011,90.0,120.0002
2672,Eu4I8,3.2752,14,8.257333,7.93984,8.085212,80.11511,90.0,90.0
2673,H1Na1,3.7942,225,3.395765,3.395765,3.395765,60.0,60.0,60.0
2674,F3Sc1,6.5706,221,4.123685,4.123685,4.123685,90.0,90.0,90.0
2675,Cr3Si6,0.9291,180,4.422241,4.422241,6.3652429999999995,90.0,90.0,120.0
2676,N12Sr2,3.6831,70,8.389663,6.775674,6.597904,77.69443,52.09836,50.20721
2677,Co6S8,0.4197,227,6.825756,6.825756,6.825756,60.0,60.0,60.0
2678,H1Rb1,2.9084000000000003,225,4.25382,4.25382,4.25382,60.0,60.0,60.0
2679,Pb4S4,0.47040000000000004,225,4.248025,4.250912,12.01696,90.0,90.0,90.0
2680,Cd1Se1,0.6411,216,4.370464,4.370464,4.370464,60.0,60.0,60.0
2681,As16S16,0.996,14,12.3329,7.500452,11.99581,68.69726,90.0,90.0
2682,Hf8I32,3.2442,205,13.40663,13.40663,13.40663,90.0,90.0,90.0
2683,Dy1N1,0.049300000000000004,225,3.473253,3.473253,3.473253,60.0,60.0,60.0
2684,O4Si2,5.015,136,4.231192,4.231192,2.6932,90.0,90.0,90.0
2685,Al4O6,4.255,63,4.668209,4.668209,7.041919,90.0,90.0,146.6785
2686,Cl2Hg2,2.6259,139,6.482318,6.482318,6.482318,137.5685,137.5685,61.56448
2687,Mn1O1,0.1756,225,3.194334,3.194334,3.194334,60.0,60.0,60.0
2688,Ba4I8,3.4691,62,5.424954,9.012923,10.8712,90.0,90.0,90.0
2689,Hf4I16,2.4091,2,8.667904,8.791561,26.68208,90.63475,94.18139,88.03797
2690,Ru16Si24,0.5861000000000001,60,5.550889,8.990629,11.09128,90.0,90.0,90.0
2691,Br4Ca2,4.608,58,4.375646,6.649286,6.974633,90.0,90.0,90.0
2692,Ce1O2,2.4255,225,3.88246,3.88246,3.88246,60.0,60.0,60.0
2693,Ag1I1,1.9773,216,4.701554,4.701554,4.701554,60.0,60.0,60.0
2694,Ga4Se4,0.8009000000000001,187,3.813609,3.813609,16.32112,90.0,90.0,120.0001
2695,Rb32Si32,1.3536000000000001,218,13.18037,13.18037,13.18037,90.0,90.0,90.0
2696,O10P4,4.2704,43,10.50018,8.43493,6.473324,88.53174,53.42225,38.046
2697,O32Si16,5.641,133,9.098961,9.098961,8.116117,90.0,90.0,90.0
2698,Al2F6,7.5589,167,5.116976,5.116976,5.116976,59.18078,59.18078,59.18078
2699,Hf8O16,4.2273,61,5.086734,5.248686,10.0572,90.0,90.0,90.0
2700,O16Pb12,1.1347,135,9.038275,9.038275,6.773481,90.0,90.0,90.0
2701,C16Na16,3.5544000000000002,142,10.55965,10.55965,10.55965,139.0121,139.0121,59.35647
2702,Ag4S2,0.9224,4,7.009176,4.244672,4.290128,109.4545,90.0,90.0
2703,C2Yb1,0.1751,139,4.194091,4.194091,4.194091,125.4334,125.4334,80.82137
2704,O4Ti2,2.262,136,4.671531,4.671531,3.023995,90.0,90.0,90.0
2705,O8Si4,5.5407,92,5.058661,5.058661,7.061017,90.0,90.0,90.0
2706,Ag8O8,0.3294,88,6.720239,6.720239,6.720239,116.8733,116.8733,95.50665
2707,Br1K1,3.8959,221,4.035092,4.035092,4.035092,90.0,90.0,90.0
2708,I2Tl2,2.1108000000000002,63,7.046602,7.046602,5.320104,90.0,90.0,141.1195
2709,Be3F6,8.3512,152,4.796172,4.795636,5.244059,90.00205,90.00036,120.0039
2710,O3Y2,4.0907,164,3.689555,3.689555,5.914076,89.99819,90.00181,119.9976
2711,H1Na1,3.8125,225,3.383553,3.383553,3.383553,60.0,60.0,60.0
2712,O3Pr2,3.1322,164,3.901342,3.901153,6.093882,89.99916,90.0,120.0016
2713,Sn1Te1,0.0746,225,4.562527,4.562527,4.562527,60.0,60.0,60.0
2714,O4Ti2,2.2662,136,4.67052,4.67052,3.023794,90.0,90.0,90.0
2715,O2Pd2,0.1835,131,3.106613,3.106613,5.413479,90.0,90.0,90.0
2716,C11N4,2.4221,111,3.540194,3.540194,6.998938,90.0,90.0,90.0
2717,O8Si4,5.3641,194,5.276588,5.276588,8.610242,90.0,90.0,120.0002
2718,As16S12,2.4391,62,7.081188,10.80316,12.15397,90.0,90.0,90.0
2719,La2O3,3.7582,164,3.987517,3.987517,6.248757,89.9966,90.0034,119.9956
2720,Al16F48,7.3099,129,10.32604,10.32604,7.275868,90.0,90.0,90.0
2721,Cr4O6,2.374,167,5.454066,5.454066,5.454066,55.61103,55.61103,55.61103
2722,S2Sn1,1.361,164,3.746882,3.746836,6.766025,89.99826,90.0,120.0004
2723,Ag2I2,1.4666000000000001,11,4.35949,4.36017,6.173913,90.19359,90.0,90.0
2724,Br16Sn4,2.4421,14,7.695599,11.40129,11.60725,76.79175,90.0,90.0
2725,Gd16O24,3.6154,206,9.420053,9.420053,9.420053,109.4712,109.4712,109.4712
2726,N1Y1,0.1477,225,3.479254,3.479254,3.479254,60.0,60.0,60.0
2727,P32S24,2.8255,62,10.51809,11.47556,14.80297,90.0,90.0,90.0
2728,Er6H18,0.042800000000000005,165,6.222302,6.222304,6.482275,90.00047,90.0,119.9999
2729,O6Si3,5.7005,154,4.996135,4.996326,5.477386,90.00013,90.00058,120.0001
2730,As2Ga2,0.3078,186,4.04058,4.04058,6.661094,90.0,90.0,119.9951
2731,Ba16Sb24,0.2631,14,13.68848,7.035652,16.02391,89.82787,90.0,90.0
2732,Mg1Te1,0.4374,225,4.223977,4.223977,4.223977,60.0,60.0,60.0
2733,O8Si4,5.3506,9,5.438095,5.438095,5.48406,83.84402,83.84402,99.59601
2734,As8Ir4,0.7405,14,6.131352,6.117482,6.22135,66.77649,90.0,90.0
2735,O3Pr2,3.1355,164,3.898797,3.898797,6.111768,89.99585,90.00415,119.9954
2736,Ho16O24,3.9397,206,9.191659,9.191659,9.191659,109.4712,109.4712,109.4712
2737,Ni1O1,1.7916,225,2.988743,2.988743,2.988743,60.0,60.0,60.0
2738,O24Tb16,3.9041,206,9.302494,9.302494,9.302494,109.4712,109.4712,109.4712
2739,F8Sn4,3.301,19,5.123302,5.379267,8.362581,90.0,90.0,90.0
2740,Ca3N2,1.5003000000000002,164,3.862876,3.8626139999999998,6.867035,89.99685,90.0,120.0022
2741,Mo8O24,1.3622,14,7.781174,7.392212,7.988214,89.42771,90.0,90.0
2742,Cl1Tl1,2.1736,221,3.897589,3.897589,3.897589,90.0,90.0,90.0
2743,F4Zn2,4.9507,136,4.678157,4.678157,3.081082,90.0,90.0,90.0
2744,Ga4Se4,0.9279000000000001,194,3.802937,3.802809,16.48564,90.0,90.0,120.0011
2745,Ca1O1,3.6357,225,3.422413,3.422413,3.422413,60.0,60.0,60.0
2746,S1Sr1,2.4951,225,4.286411,4.286411,4.286411,60.0,60.0,60.0
2747,H1Li1,2.9613,225,2.825228,2.825228,2.825228,60.0,60.0,60.0
2748,K2N6,4.1566,140,5.682475,5.682475,5.682475,113.8119,113.8119,101.1004
2749,Ag1I1,1.9771,216,4.703562,4.703562,4.703562,60.0,60.0,60.0
2750,P32S72,2.7163,206,16.34441,16.34441,16.34441,109.4712,109.4712,109.4712
2751,Ni2S2,0.199,194,3.53088,3.53088,5.642917,90.0,90.0,120.0041
2752,Co2F4,4.2159,136,4.759682,4.759682,3.201529,90.0,90.0,90.0
2753,Te1Zn1,1.4774,216,4.34129,4.34129,4.34129,60.0,60.0,60.0
2754,Ga2N2,1.912,186,3.205402,3.205402,5.218967,90.0,90.0,119.9991
2755,O4Ti2,2.2659000000000002,136,4.671918,4.671918,3.022892,90.0,90.0,90.0
2756,F2Sr1,6.7792,225,4.140301,4.140301,4.140301,60.0,60.0,60.0
2757,F6Rh2,2.08,167,5.444767,5.444767,5.444767,55.05549,55.05549,55.05549
2758,K6S6,1.4666000000000001,189,8.578644,8.578644,5.932117,90.0,90.0,120.0002
2759,O10V4,2.1383,59,3.619517,4.620897,11.57556,90.0,90.0,90.0
2760,Ag4I4,1.9779,216,6.64827,6.64827,6.64827,90.0,90.0,90.0
2761,O2Zn2,1.8299,186,3.19963,3.199407,5.119942,90.0,90.0,120.0023
2762,Na2O1,1.9175,225,3.940474,3.940474,3.940474,60.0,60.0,60.0
2763,Ba1C2,1.3777,166,3.915236,3.915236,3.915236,83.754,83.754,83.754
2764,O6Si3,5.7235,154,4.9751259999999995,4.976437,5.471879,89.9969,89.99683,120.0003
2765,S1Sr1,2.4956,225,4.286771,4.286771,4.286771,60.0,60.0,60.0
2766,F24W4,5.0345,62,5.268349,9.004605,9.958279,90.0,90.0,90.0
2767,Br1K1,3.9417,221,4.015285,4.015285,4.015285,90.0,90.0,90.0
2768,S22Zn22,2.6619,156,3.798469,3.798434,68.26326,89.99995,90.0,120.0003
2769,Er1N1,0.12290000000000001,225,3.427921,3.427921,3.427921,60.0,60.0,60.0
2770,O2Zn2,1.8242,186,3.198414,3.198208,5.128411,90.0,90.0,120.0021
2771,Cr2F6,2.7041,167,5.363775,5.363775,5.363775,56.75486,56.75486,56.75486
2772,O2Zn2,1.827,186,3.19893,3.198713,5.124455,90.0,90.0,120.0022
2773,Ge32Rb32,1.0578,218,13.32397,13.32397,13.32397,90.0,90.0,90.0
2774,Al2N2,4.0464,186,3.129975,3.129975,5.011382,90.0,90.0,119.9954
2775,Te1Zn1,1.474,216,4.342227,4.342227,4.342227,60.0,60.0,60.0
2776,Pb1Te1,0.7965,225,4.6346609999999995,4.6346609999999995,4.6346609999999995,60.0,60.0,60.0
2777,Cl2Co1,3.3492,166,6.616907,6.616907,6.616907,31.57466,31.57466,31.57466
2778,O4Zr2,3.8784,137,3.643432,3.643432,5.306828,90.0,90.0,90.0
2779,Bi1K3,0.17880000000000001,225,6.146343,6.146343,6.146343,60.0,60.0,60.0
2780,Os4Te8,0.1468,205,6.476923,6.476923,6.476923,90.0,90.0,90.0
2781,N1Y1,0.1474,225,3.479076,3.479076,3.479076,60.0,60.0,60.0
2782,O8Zr4,3.4615,14,5.28795,5.219517,5.395821,80.33378,90.0,90.0
2783,O4Pb2,0.0235,136,5.081596,5.081596,3.448607,90.0,90.0,90.0
2784,Ir4P8,0.5152,14,5.820298,5.774283,5.877899,68.52286,90.0,90.0
2785,As6Na18,0.1361,185,8.765858,8.765858,8.996386,90.0,90.0,120.0028
2786,I32Sn8,1.7905000000000002,205,13.14821,13.14821,13.14821,90.0,90.0,90.0