,full_formula,band_gap,spacegroup.number,structure.lattice.a,structure.lattice.b,structure.lattice.c,structure.lattice.alpha,structure.lattice.beta,structure.lattice.gamma
1680,Br6Rh2,1.8024,12,6.415439,6.415439,6.748863,80.83316,80.83316,119.9537
1681,Cl6I2,1.7346,2,6.241071,8.78649,5.958036,84.12669,86.10179,70.82727
1682,As2Te3,0.3992,166,10.33822,10.33822,10.33822,22.86157,22.86157,22.86157
1683,Cr4O6,2.3744,167,5.448323,5.448323,5.448323,55.69383,55.69383,55.69383
1684,P16Zn8,1.3921000000000001,92,5.085121,5.085121,18.52122,90.0,90.0,90.0
1685,Cr4O6,2.3711,167,5.448212,5.448212,5.448212,55.711,55.711,55.711
1686,N8S16,1.6599,102,11.78597,11.78597,4.206514,90.0,90.0,90.0
1687,O2Pt2,0.1971,131,3.151331,3.151331,5.342036,90.0,90.0,90.0
1688,O24Si12,5.4726,60,4.897945,8.808065,10.69425,90.0,90.0,90.0
1689,C4Os4,0.39080000000000004,198,4.471304,4.471304,4.471304,90.0,90.0,90.0
1690,Ni1O1,1.7944,225,2.990137,2.990137,2.990137,60.0,60.0,60.0
1691,Co1O1,0.873,216,3.2792149999999998,3.2792149999999998,3.2792149999999998,60.0,60.0,60.0
1692,In12Se18,1.0699,169,7.31268,7.31268,19.65431,90.0,90.0,120.0
1693,Cd7I14,2.391,156,4.311122,4.311091,50.92304,89.99974,90.0,120.0002
1694,O4Ti2,2.2645,136,4.673251,4.673251,3.022833,90.0,90.0,90.0
1695,Al1N1,3.3056,216,3.11287,3.11287,3.11287,60.0,60.0,60.0
1696,S4Tl4,0.6828000000000001,140,6.638265,6.638265,6.638265,105.9747,105.9747,116.7163
1697,Cs2S2,1.7124000000000001,71,6.420224,6.420224,6.420224,131.737,109.8541,89.69417
1698,Cl1K1,4.8085,221,3.836055,3.836055,3.836055,90.0,90.0,90.0
1699,O6Si3,5.7121,154,4.976636,4.97661,5.474401,90.00007,90.00011,120.0004
1700,Cl1Li1,6.2324,225,3.646716,3.646716,3.646716,60.0,60.0,60.0
1701,Cl1K1,5.0533,225,4.509655,4.509655,4.509655,60.0,60.0,60.0
1702,Cd2Se2,0.6902,186,4.374159,4.373769,7.133052,90.0,90.0,120.003
1703,O6Si3,5.715,152,4.975163,4.975133,5.470431,89.99851,89.99866,120.0005
1704,Hf2S6,1.1177,11,3.6136939999999997,5.143743,9.514988,96.14716,90.0,90.0
1705,N12Sr2,3.7113,70,8.39066,6.755844,6.615221,77.72746,51.88398,50.38856
1706,Cs4I4,3.8653,225,7.847271,7.847548,7.849871,90.0,90.0,90.0
1707,Ce1O2,2.4183,225,3.885092,3.885092,3.885092,60.0,60.0,60.0
1708,O22Ti12,0.10010000000000001,12,5.472517,5.472517,21.34167,87.82403,87.82403,41.30982
1709,H1Li1,2.9617,225,2.825637,2.825637,2.825637,60.0,60.0,60.0
1710,Fe2Se2,0.4811,129,4.242525,4.242525,5.611325,90.0,90.0,90.18348
1711,N3Na1,0.5891000000000001,12,4.675128,4.675128,6.043922,54.65445,54.65445,79.68841
1712,Fe12S12,0.5272,40,6.430275,6.284426,11.88131,90.0,90.0,120.7707
1713,Ag2I2,1.9984000000000002,186,4.693081,4.693081,7.704604,90.0,90.0,119.9944
1714,O24Si12,1.2610999999999999,177,12.73726,12.73726,3.777225,90.0,90.0,120.0
1715,S14Zn14,2.6945,156,3.798793,3.798788,43.47658,90.00006,90.0,120.0
1716,Cl1K1,4.7993,221,3.838882,3.838882,3.838882,90.0,90.0,90.0
1717,O16Pb12,1.1628,55,6.786109,8.711269,9.322398,90.0,90.0,90.0
1718,F18S3,5.8622,12,8.363182,8.363182,4.9714089999999995,85.45352,85.45352,60.91478
1719,O6Si3,5.7096,154,4.981401,4.981684,5.474231,90.00059,90.00056,120.0004
1720,Bi4F12,3.9619,215,5.789975,5.789975,5.789975,90.0,90.0,90.0
1721,O6Si3,5.7004,152,4.98885,4.988372,5.48354,89.99628,90.00253,120.0004
1722,O8Sn4,0.1708,62,3.605794,5.396153,7.367697,90.0,90.0,90.0
1723,Bi8O12,1.8151000000000002,60,5.679727,5.736687,11.96182,90.0,90.0,90.0
1724,Ge12N16,1.9380000000000002,159,8.303879,8.303879,6.003917,89.99996,89.99996,120.0004
1725,Mn6O8,0.6503,141,6.358107,6.358107,6.358107,124.7418,124.7418,81.96609
1726,C60Cs6,0.7466,204,10.38961,10.38961,10.38961,109.4712,109.4712,109.4712
1727,P16Zn8,1.3933,92,5.084479,5.084479,18.52509,90.0,90.0,90.0
1728,S28Zn28,2.6665,156,3.798737,3.798731,86.87576,89.9998,90.0,120.0001
1729,Be2O2,7.432,186,2.712702,2.712719,4.403822,90.0,90.0,119.9998
1730,I8Zr4,0.2822,31,3.771532,6.920676,16.25972,90.0,90.0,90.0
1731,Cd11I22,2.3991,156,4.31271,4.31271,79.5297,90.00188,89.99812,120.0009
1732,N8Si6,4.2572,176,7.660793,7.660755,2.9231949999999998,90.0,90.0,119.9982
1733,Br28Ta12,1.1117,64,10.26738,10.26738,11.92333,90.0,90.0,87.90082
1734,S24Zn24,2.6943,156,3.7978259999999997,3.797833,74.49425,90.00001,90.0,119.9999
1735,O32V16,0.1723,138,8.557543,8.557543,7.685506,90.0,90.0,90.0
1736,Ge2S4,2.4672,122,6.133419,6.133419,6.133419,125.0504,125.0504,81.45456
1737,Fe2Se2,0.4887,129,4.247463,4.247463,5.555697,90.0,90.0,90.00786
1738,Al4O6,5.8529,167,5.179661,5.179661,5.179661,55.30612,55.30612,55.30612
1739,O10V4,2.1847,59,3.614669,4.687106,11.57035,90.0,90.0,90.0
1740,Ca1Te1,1.5541,225,4.52405,4.52405,4.52405,60.0,60.0,60.0
1741,Al4O6,5.8488,167,5.180649,5.180649,5.180649,55.30023,55.30023,55.30023
1742,Br2F6,2.1653000000000002,36,4.940311,4.940311,6.19258,90.0,90.0,106.745
1743,Be2O2,7.4564,186,2.710314,2.710314,4.407479,90.0,90.0,119.9984
1744,Nd8S12,0.7645000000000001,62,4.061945,7.518307,15.67652,90.0,90.0,90.0
1745,F4Mn2,2.5838,136,4.971403,4.971403,3.343232,90.0,90.0,90.0
1746,O8V4,0.1971,12,6.471874,6.471874,6.481806,73.74576,73.74576,33.53103
1747,Bi4Br12,2.62,14,8.935774,8.491979,11.31594,55.90331,90.0,90.0
1748,O4Zr2,3.8847,137,3.645382,3.645382,5.308192,90.0,90.0,90.0
1749,C2Eu1,0.1782,139,4.434751,4.434751,4.434751,125.3467,125.3467,80.96455
1750,Fe4O6,1.2831000000000001,167,5.514993,5.514993,5.514993,55.73585,55.73585,55.73585
1751,Pb1S1,0.465,225,4.246004,4.246004,4.246004,60.0,60.0,60.0
1752,O6Ti4,0.8486,167,5.48618,5.48618,5.48618,57.7296,57.7296,57.7296
1753,Mn1Se1,0.3985,225,3.915535,3.915535,3.915535,60.0,60.0,60.0
1754,Ge4Ru4,0.2716,198,4.880463,4.880463,4.880463,90.0,90.0,90.0
1755,Se2Sn2,0.377,63,6.428131,6.428131,4.347634,90.0,90.0,140.7859
1756,Ho8S12,0.6114,62,3.853215,10.44938,10.60395,90.0,90.0,90.0
1757,Se4Tl4,0.1087,140,6.807838,6.807838,6.807838,105.9587,105.9587,116.7507
1758,Au8Br24,0.6526000000000001,14,20.61252,6.900864,8.194054,69.4165,90.0,90.0
1759,Er16O24,3.9709000000000003,206,9.133937,9.133937,9.133937,109.4712,109.4712,109.4712
1760,F18La6,7.7096,185,7.299994,7.299994,7.469476,90.0,90.0,120.001
1761,Br20P4,1.6381999999999999,57,5.942939,8.761798,17.42651,90.0,90.0,90.0
1762,Cu2I2,1.988,156,4.221326,4.221326,7.349423,90.01028,89.98972,120.0205
1763,H8O8,4.0333,92,3.330273,3.330273,11.4614,90.0,90.0,90.0
1764,Na6S6,0.8599,189,7.65496,7.65496,5.365173,90.0,90.0,120.003
1765,Fe2Se2,0.5055000000000001,129,4.256866,4.256866,5.448939,90.0,90.0,90.0
1766,O8Si4,5.5559,92,5.016822,5.016822,6.970729,90.0,90.0,90.0
1767,O16Ti8,2.5707,61,5.264115,5.546232,9.354422,90.0,90.0,90.0
1768,Fe4O6,1.275,167,5.50837,5.50837,5.50837,55.74691,55.74691,55.74691
1769,Cl1K1,4.8498,221,3.823489,3.823489,3.823489,90.0,90.0,90.0
1770,O2Zn2,1.8075999999999999,186,3.188881,3.188678,5.159144,90.0,90.0,120.0021
1771,O6Si3,5.7183,154,4.978205,4.978204,5.47557,90.0,90.0,120.0002
1772,S4Sn4,0.9295,62,4.085224,4.411099,11.68916,90.0,90.0,90.0
1773,F18La6,7.6849,165,7.302828,7.302831,7.470592,89.99947,90.00051,120.0012
1774,S2V1,0.1738,164,3.323597,3.32287,6.26779,90.00036,90.0,120.0072
1775,As1Ga1,0.2948,216,4.055357,4.055357,4.055357,60.0,60.0,60.0
1776,Cl12Sc7,0.5893,148,8.299388,8.299388,8.299388,107.0036,107.0036,107.0036
1777,S1Sr1,2.4956,225,4.286789,4.286789,4.286789,60.0,60.0,60.0
1778,Ru4Te8,0.3168,205,6.47991,6.47991,6.47991,90.0,90.0,90.0
1779,Be1O1,8.155,225,2.581308,2.581308,2.581308,60.0,60.0,60.0
1780,Ir8Se16,0.0758,62,3.784829,6.005936,21.17457,90.0,90.0,90.0
1781,Ge1Te1,0.375,225,4.250227,4.250227,4.250227,60.03444,60.03444,60.03444
1782,Bi2I6,2.4097,162,7.773322,7.769287,7.570898,90.03029,89.93945,120.0172
1783,F6Ga2,4.9106000000000005,167,5.281304,5.281304,5.281304,57.08854,57.08854,57.08854
1784,F1Tl1,2.2163,225,4.022944,4.022944,4.022944,120.1041,120.1041,89.81983
1785,O4Ti2,2.2616,136,4.671342,4.671342,3.02404,90.0,90.0,90.0
1786,Ce1O2,2.4183,225,3.885098,3.885098,3.885098,60.0,60.0,60.0
1787,O8Si4,5.5031,9,5.09378,5.09378,8.537066,89.20309,89.20309,119.6453
1788,Br20Eu10,3.1463,85,11.70676,11.70676,7.2652660000000004,90.0,90.0,90.0
1789,Cu4O2,0.655,224,4.290399,4.290399,4.290399,90.0,90.0,90.0
1790,N8Pt4,1.3023,205,4.853217,4.853217,4.853217,90.0,90.0,90.0
1791,H4Mg2,3.7446,136,4.483773,4.483773,2.996581,90.0,90.0,90.0
1792,S18Zn18,2.6864,156,3.79845,3.798424,55.85779,89.99999,90.0,120.0002
1793,O4Si2,5.0075,136,4.231786,4.231786,2.693557,90.0,90.0,90.0
1794,Fe4S8,2.0284,205,5.521986,5.521986,5.521986,90.0,90.0,90.0
1795,Al12S18,2.8141,169,6.549379,6.549221,18.04791,89.9996,90.00019,119.9994
1796,Br20Sr10,4.318,85,11.76533,11.76533,7.290325,90.0,90.0,90.0
1797,In1P1,0.5808,216,4.19918,4.19918,4.19918,60.0,60.0,60.0
1798,Mn16Si28,0.8825000000000001,116,5.485515,5.485515,17.31687,90.0,90.0,90.0
1799,Cl6Gd4,0.2305,12,8.1507,8.1507,10.44408,61.74582,61.74582,27.92918
1800,Ba2S4,1.5733000000000001,15,5.263181,5.263181,9.153396,65.1498,65.1498,54.64949
1801,O12Sb8,2.2159,56,5.180206,5.5243459999999995,12.62103,90.0,90.0,90.0
1802,Fe2S4,1.745,58,3.466827,4.488981,5.520919,90.0,90.0,90.0
1803,O16Sb8,1.8860000000000001,52,5.586029,4.905671,11.92398,90.0,90.0,90.0
1804,O6Si3,5.697,154,4.982901,4.9827960000000004,5.507102,90.00793,89.99118,120.0216
1805,Na4S4,1.2419,194,4.496085,4.496085,10.24077,90.0,90.0,119.9979
1806,N12Sr2,3.5476,70,8.392926,6.872069,6.52947,77.50367,53.07243,49.4239
1807,Ca1Se1,2.0663,225,4.211229,4.211229,4.211229,60.0,60.0,60.0
1808,O8Si4,5.6149000000000004,15,6.907488,6.907488,4.992048,71.77135,71.77136,72.18459
1809,Ag1I1,1.9769999999999999,216,4.703817,4.703817,4.703817,60.0,60.0,60.0
1810,Cd4O8,1.4193,205,5.38479,5.38479,5.38479,90.0,90.0,90.0
1811,Ce1O2,2.423,225,3.883317,3.883317,3.883317,60.0,60.0,60.0
1812,H8Mg4,3.6478,60,4.49199,4.897047,5.392136,90.0,90.0,90.0
1813,Se4Si2,2.1076,72,6.965688,6.965688,6.965688,129.5917,123.85,78.79425
1814,Ho1N1,0.08510000000000001,225,3.449962,3.449962,3.449962,60.0,60.0,60.0
1815,Cd1Te1,0.7091000000000001,216,4.667963,4.667963,4.667963,60.0,60.0,60.0
1816,O8V4,0.6868000000000001,14,4.510552,5.436072,5.437686,67.80825,90.0,90.0
1817,Bi8Br8,0.6807000000000001,12,7.459693,7.459693,21.09667,72.14224,72.14224,33.28446
1818,O2Zn2,1.8228,186,3.197993,3.197993,5.129961,90.0,90.0,119.9964
1819,S12Sb8,1.2812999999999999,62,3.870132,11.23505,12.15214,90.0,90.0,90.0
1820,O1Rb2,1.3072,225,4.869208,4.869208,4.869208,60.0,60.0,60.0
1821,Er1N1,0.1174,225,3.424976,3.424976,3.424976,60.0,60.0,60.0
1822,Br2F10,3.4687,36,5.108399,5.108399,8.036519,90.0,90.0,96.5985
1823,Ge3O6,3.145,152,5.101378,5.101465,5.762584,89.99449,90.00574,120.006
1824,O4Si2,5.004,136,4.2320969999999996,4.2320969999999996,2.693707,90.0,90.0,90.0
1825,Be1Se1,2.6691000000000003,216,3.6647600000000002,3.6647600000000002,3.6647600000000002,60.0,60.0,60.0
1826,Ho1N1,0.0858,225,3.450284,3.450284,3.450284,60.0,60.0,60.0
1827,Se2Ti2,0.14200000000000002,194,3.889016,3.889633,6.706146,90.0,90.0,119.9948
1828,Ni1O1,1.7915,225,2.988753,2.988753,2.988753,60.0,60.0,60.0
1829,O2Pb2,1.6157,129,4.057181,4.057181,5.409419,90.0,90.0,90.0
1830,Mn1S1,0.8195,225,3.736024,3.736024,3.736024,60.0,60.0,60.0
1831,O36Si18,5.6381,13,8.852847,7.472246,15.89712,88.79002,90.0,90.0
1832,Ge1Mg2,0.1927,225,4.529059,4.529059,4.529059,60.0,60.0,60.0
1833,O16Si8,4.5125,68,5.768456,5.768456,11.314,90.0,90.0,93.98175
1834,S2Zr1,1.0141,164,3.692882,3.692882,6.252834,90.00671,89.99329,120.0139
1835,F12Tb4,7.7423,62,4.449209,6.464745,6.969279,90.0,90.0,90.0
1836,Pt1S2,1.2013,164,3.568619,3.568619,5.628332,89.98991,90.01009,119.9902
1837,Eu2O3,0.13,164,3.8161300000000002,3.8161300000000002,5.991498,89.99412,90.00588,119.9922
1838,Os2P4,0.9187000000000001,58,2.948958,5.117877,5.944161,90.0,90.0,90.0
1839,N1Y1,0.1471,225,3.478848,3.478848,3.478848,60.0,60.0,60.0
1840,F4Mg2,6.836,58,3.094329,4.670408,4.711659,90.0,90.0,90.0
1841,Ca4F8,7.4461,62,3.642255,6.021296,7.076167,90.0,90.0,90.0
1842,Ge2O4,1.1977,136,4.475281,4.475281,2.9128629999999998,90.0,90.0,90.0
1843,Sb2Te3,0.0335,166,10.58029,10.58029,10.58029,23.69413,23.69413,23.69413
1844,Ge3O6,3.1536,152,5.021312,5.021492,5.757185,90.00347,89.99642,120.0324
1845,I6Y2,3.0302,148,8.722578,8.722578,8.722578,52.39169,52.39169,52.39169
1846,O24Si12,5.6971,36,11.2896,11.2896,5.099513,90.0,90.0,102.9288
1847,Ca1S1,2.3838,225,4.043491,4.043491,4.043491,60.0,60.0,60.0
1848,Au4Cl4,2.2841,141,6.769944,6.769944,6.769944,115.6258,115.6258,97.75948
1849,Ga4O6,2.1448,12,6.400684,6.400684,5.842518,76.88095,76.88095,27.69051
1850,As1Ga1,0.2947,216,4.05538,4.05538,4.05538,60.0,60.0,60.0
1851,H8Sr4,3.1424,62,3.846473,6.33543,7.278289,90.0,90.0,90.0
1852,In16O24,1.1195,206,8.866958,8.866958,8.866958,109.4712,109.4712,109.4712
1853,F1Li1,8.745,225,2.884276,2.884276,2.884276,60.0,60.0,60.0
1854,F3Mo1,1.7373,221,4.174642,4.174642,4.174642,90.0,90.0,90.0
1855,Te1Yb1,1.2373,225,4.533474,4.533474,4.533474,60.0,60.0,60.0
1856,O2Zn2,1.8231000000000002,186,3.198158,3.198158,5.129445,90.0,90.0,119.9964
1857,Hg4O4,1.1971,62,3.718379,5.827033,6.730407,90.0,90.0,90.0
1858,As16S16,2.3974,14,18.74722,7.681475,9.817913,82.99036,90.0,90.0
1859,P16Zn8,0.7772,14,7.295742,7.577115,8.84941,77.61541,90.0,90.0
1860,S6Ti2,0.6969000000000001,11,3.46996,5.068697,9.124214,95.84096,90.0,90.0
1861,Co2F4,4.2085,136,4.763081,4.763081,3.20729,90.0,90.0,90.0
1862,S22Zn22,2.6859,156,3.798008,3.798006,68.26884,90.0,90.0,120.0
1863,C16K16,2.7211,142,11.07625,11.07625,11.07625,131.1002,131.1002,71.65395
1864,Co1O2,1.3209,12,2.842957,2.842957,10.52295,82.56807,82.56807,60.13558
1865,Cl8Th2,4.0245,88,8.143075,8.143075,8.143075,131.167,131.167,71.54792
1866,Fe2Se2,0.5063,129,4.247482,4.247482,5.438422,90.0,90.0,89.9599
1867,Pb1S1,0.4651,225,4.246099,4.246099,4.246099,60.0,60.0,60.0
1868,H1Li1,2.9623,225,2.826485,2.826485,2.826485,60.0,60.0,60.0
1869,Si1Sn1,0.0717,216,4.333117,4.333117,4.333117,60.0,60.0,60.0
1870,O24Yb16,0.40650000000000003,206,8.996886,8.996886,8.996886,109.4712,109.4712,109.4712
1871,F12Yb4,0.806,62,4.781247,5.934893,6.766414,90.0,90.0,90.0
1872,F9Rh3,1.2627,5,5.052688,5.052688,7.352045,90.90886,89.09114,122.8971
1873,Pb1Te1,0.7965,225,4.634656,4.634656,4.634656,60.0,60.0,60.0
1874,O16Si8,5.5875,198,7.2412600000000005,7.2412600000000005,7.2412600000000005,90.0,90.0,90.0
1875,Rb8Te4,1.7182,62,5.634495,9.179173,11.09589,90.0,90.0,90.0
1876,Mo1Se2,1.0333,160,7.023831,7.023591,7.023591,27.47825,27.47778,27.47778
1877,Ca8Ge4,0.32180000000000003,62,4.842902,7.665233,9.082409,90.0,90.0,90.0
1878,Cl1Rb1,4.7786,221,3.99735,3.99735,3.99735,90.0,90.0,90.0
1879,O32Si16,5.6336,14,8.05108,8.904397,8.900848,89.75936,90.0,90.0
1880,Fe2Se4,1.1592,58,3.688859,4.847194,5.903699,90.0,90.0,90.0
1881,Ru2Sb4,0.162,58,3.216318,5.999496,6.759045,90.0,90.0,90.0
1882,Ba2Se4,0.6224000000000001,15,5.499524,5.499524,9.501063,65.35826,65.35826,54.4821
1883,As8Ir4,0.7404000000000001,14,6.131245,6.118801,6.221771,66.7731,90.0,90.0
1884,Cs1I1,3.6553,221,4.677025,4.677025,4.677025,90.0,90.0,90.0
1885,Br1Tl1,2.2714,225,4.780936,4.780936,4.780936,60.0,60.0,60.0
1886,O4Ti2,2.5282999999999998,141,5.562165,5.562165,5.562165,139.2696,139.2696,58.96404
1887,S2Zn2,2.7398,186,3.797528,3.797304,6.217256,90.0,90.0,120.0019
1888,Fe4S8,2.0217,205,5.5281649999999996,5.5281649999999996,5.5281649999999996,90.0,90.0,90.0
1889,As16S16,2.3952,14,18.52331,7.7329609999999995,9.874689,83.46415,90.0,90.0
1890,Na2O1,1.925,225,3.937802,3.937802,3.937802,60.0,60.0,60.0
1891,Al4O6,5.8491,167,5.180474,5.180474,5.180474,55.30207,55.30207,55.30207
1892,Ba4Cl8,5.1068,62,4.825845,8.006075,9.574541,90.0,90.0,90.0
1893,Al4O6,5.8521,167,5.179958,5.179958,5.179958,55.30293,55.30293,55.30293
1894,In16O24,1.1213,206,8.867031,8.867031,8.867031,109.4712,109.4712,109.4712
1895,Te10Zr2,0.0848,63,8.070199,8.070199,13.84113,90.0,90.0,150.9091
1896,O8Te4,3.1221,19,4.080653,5.376467,8.354296,90.0,90.0,90.0
1897,Mn4Se8,0.6998000000000001,205,6.077824,6.077824,6.077824,90.0,90.0,90.0
1898,As4Br12,3.0876,19,4.61586,11.08722,13.06808,90.0,90.0,90.0
1899,F18La6,7.6972000000000005,165,7.298845,7.298852,7.468076,89.99957,90.00052,120.0011
1900,K4O4,2.3473,64,4.91364,4.91364,6.558677,90.0,90.0,92.1149
1901,O6V4,0.0325,167,5.559986,5.559986,5.559986,54.77847,54.77847,54.77847
1902,La20Se38,0.4602,86,9.54986,9.54986,17.37838,90.0,90.0,90.0
1903,O6Si3,5.7128,154,4.974362,4.974685,5.466879,90.00064,90.00162,120.0045
1904,F4Sn1,2.7018,139,5.061075,5.061075,5.061075,130.723,130.723,72.25359
1905,N4O8,2.7151,14,5.012111,6.063448,6.878157,66.19743,90.0,90.0
1906,Sn1Te1,0.0745,225,4.5625029999999995,4.5625029999999995,4.5625029999999995,60.0,60.0,60.0
1907,In1P1,0.5779000000000001,216,4.199926,4.199926,4.199926,60.0,60.0,60.0
1908,O2Sr1,2.8682,139,4.243344,4.243344,4.243344,130.1881,130.1881,73.10621
1909,O8Zr4,3.4915000000000003,14,5.278878,5.226093,5.411419,80.23921,90.0,90.0
1910,K8S20,1.746,19,6.649938,6.7179459999999995,17.75768,90.0,90.0,90.0
1911,P16Si8,1.3486,55,3.450976,10.24483,15.41617,90.0,90.0,90.0
1912,Ba8Ge16,0.46990000000000004,62,6.863203,9.170843,11.70026,90.0,90.0,90.0
1913,F10P2,7.0791,194,5.781096,5.781096,6.420595,90.0,90.0,120.0074
1914,Hg3Te3,0.2559,152,4.6578990000000005,4.657994,10.39453,90.00132,89.99716,120.0029
1915,Mg4Te8,1.116,205,7.108423,7.108423,7.108423,90.0,90.0,90.0
1916,As8O12,3.7214,86,6.984713,6.984713,8.73516,90.0,90.0,90.0
1917,Mg1O1,4.4688,225,3.007278,3.007278,3.007278,60.0,60.0,60.0
1918,F6S1,5.7044,229,5.155412,5.155412,5.155412,109.4712,109.4712,109.4712
1919,S18Zn18,2.6863,156,3.798301,3.79836,55.86695,89.9999,90.0,119.9995
1920,F8Pb4,4.3719,62,3.947488,6.572514,7.806381,90.0,90.0,90.0
1921,Li1N3,3.6601,12,3.297292,3.297292,4.953929,75.65172,75.65172,61.33154
1922,Sb8Se12,0.7661,62,4.034453,11.56808,12.73406,90.0,90.0,90.0
1923,Li2Se1,2.9753,225,4.258326,4.258326,4.258326,60.0,60.0,60.0
1924,Ga4S4,1.6448,194,3.618937,3.618937,15.824,90.0,90.0,120.0022
1925,Cl1Tl1,2.5246,225,4.613506,4.613506,4.613506,60.0,60.0,60.0
1926,O8Si4,4.1314,6,5.656212,4.952645,5.372816,71.35841,90.0,90.0
1927,Pb1Te1,0.7988000000000001,225,4.636535,4.636535,4.636535,60.0,60.0,60.0
1928,Cl4Pd2,1.6191,58,3.406016,4.173619,11.4413,90.0,90.0,90.0
1929,F1Na1,6.135,225,3.313301,3.313301,3.313301,60.0,60.0,60.0
1930,Ba1O2,2.2186,139,4.422676,4.422676,4.422676,128.1746,128.1746,76.34239
1931,O4Ti2,2.2617,136,4.669669,4.669669,3.023528,90.0,90.0,90.0
1932,Ge16Se32,1.3927,14,17.22651,7.206547,12.5784,89.17529,90.0,90.0
1933,Co4Sb12,0.1461,204,7.869872,7.869872,7.869872,109.4712,109.4712,109.4712
1934,O12Rb4,0.8598,14,6.151277,6.796464,7.612219,77.67978,90.0,90.0
1935,Pb1Se1,0.398,225,4.386718,4.386718,4.386718,60.0,60.0,60.0
1936,Ga2N2,1.9141,186,3.205154,3.205154,5.218316,90.0,90.0,119.9973
1937,Br4Hg2,2.4767,36,4.288041,4.288041,12.93504,90.0,90.0,109.8839
1938,Cl6Pr2,3.027,176,7.519401,7.5247209999999995,4.322165,90.0,90.0,120.1137
1939,O24Y16,4.0596,206,9.264735,9.264735,9.264735,109.4712,109.4712,109.4712
1940,O4Ti2,2.2664,136,4.672581,4.672581,3.02321,90.0,90.0,90.0
1941,O6Si3,5.7153,154,4.978803,4.978858,5.478857,89.99999,89.99993,120.0005
1942,O4Zr2,3.8711,137,3.643906,3.643906,5.303507,90.0,90.0,90.0
1943,As16S16,2.3644,14,18.57613,7.642435,9.757084,82.70223,90.0,90.0
1944,S12Sb8,1.2825,62,3.870215,11.23648,12.14636,90.0,90.0,90.0
1945,Ge1Te1,0.3753,225,4.251484,4.251484,4.251484,60.0,60.0,60.0
1946,F1K1,5.9618,225,3.831921,3.831921,3.831921,60.0,60.0,60.0
1947,Ge6N8,1.8424,227,5.882546,5.882546,5.882546,60.0,60.0,60.0
1948,Cd8I16,2.3738,156,4.310975,4.310947,58.12764,90.00226,90.0,120.0002
1949,Cl1K1,4.7987,221,3.839048,3.839048,3.839048,90.0,90.0,90.0
1950,As1Ga1,0.2947,216,4.055384,4.055384,4.055384,60.0,60.0,60.0
1951,Cs2N6,4.1998,140,6.273672,6.273672,6.273672,115.6722,115.6722,97.67513
1952,K8Te12,0.5685,62,4.609264,10.40709,16.04957,90.0,90.0,90.0
1953,Ba8Si16,0.7746000000000001,62,6.760928,9.050625,11.59158,90.0,90.0,90.0
1954,Al2N2,4.0499,186,3.129702,3.12949,5.012307,90.0,90.0,120.0022
1955,Li1N3,3.6391,12,3.302962,3.302962,4.980999,75.20435,75.20435,61.20294
1956,S7Zn7,2.7215,160,21.85766,21.85766,21.85766,9.955947,9.956311,9.955947
1957,O24W8,1.4491,2,7.576252,7.820057,7.656924,89.55207,89.66514,89.69257