,full_formula,band_gap,spacegroup.number,structure.lattice.a,structure.lattice.b,structure.lattice.c,structure.lattice.alpha,structure.lattice.beta,structure.lattice.gamma
5006,Ba8Si16,0.7794000000000001,62,6.764284,9.051808,11.58791,90.0,90.0,90.0
5007,O4Si2,5.0117,136,4.231724,4.231724,2.693199,90.0,90.0,90.0
5008,Se4Sn4,0.6762,62,4.251228,4.6134509999999995,11.88953,90.0,90.0,90.0
5009,In16Se12,0.1431,58,4.157712,12.49286,15.4836,90.0,90.0,90.0
5010,O8Te4,2.8877,62,3.964869,5.456589,8.644795,90.0,90.0,90.0
5011,Cl30Mo6,0.7637,12,13.20955,13.20955,6.580813,85.93126,85.93126,89.03988
5012,Cl1Na1,5.0514,225,4.007548,4.007548,4.007548,60.0,60.0,60.0
5013,H16Mg8,2.101,61,4.727464,4.881969,9.270498,90.0,90.0,90.0
5014,Ca2H4,0.6341,194,3.798972,3.798972,5.319726,90.0,90.0,119.9992
5015,Na8Sb8,0.4852,14,6.392994,6.800442,11.15179,84.50858,90.0,90.0
5016,Nb4S12,0.5279,2,8.468041,9.894528,5.033222,96.70665,126.5527,86.12459
5017,Cl6Dy2,3.8280000000000003,63,6.87589,6.87589,8.567712,90.0,90.0,147.9423
5018,As8Rh4,0.22080000000000002,14,6.157072,6.128774,6.216226,65.23306,90.0,90.0
5019,In4O6,1.1662,167,5.850565,5.850565,5.850565,56.58019,56.58019,56.58019
5020,Ni1O1,1.7921,225,2.989016,2.989016,2.989016,60.0,60.0,60.0
5021,Cl1K1,4.8075,221,3.836357,3.836357,3.836357,90.0,90.0,90.0
5022,O8V4,0.7171000000000001,10,7.375175,4.672394,9.011421,96.41242,90.0,90.0
5023,Er16O24,3.9735,206,9.135193,9.135193,9.135193,109.4712,109.4712,109.4712
5024,F8Pb4,4.3614,62,3.947888,6.558492,7.817492,90.0,90.0,90.0
5025,Cs1I1,3.6913,221,4.657729,4.657729,4.657729,90.0,90.0,90.0
5026,C2O4,6.4626,64,3.687771,3.687771,7.054889,90.0,90.0,86.1148
5027,F1Tl1,2.19,225,4.011281,4.011281,4.011281,120.0894,120.0894,89.84519
5028,O8Zr4,3.4599,14,5.291254,5.213552,5.39261,80.45158,90.0,90.0
5029,O12W4,0.8159000000000001,130,5.334216,5.334216,8.020585,90.0,90.0,90.0
5030,O4Si2,5.0098,136,4.231758,4.231758,2.693424,90.0,90.0,90.0
5031,As2Na6,0.15080000000000002,194,5.059711,5.059831,9.014722,90.0,90.0,119.9992
5032,Rb4Se6,0.6536000000000001,36,6.833369,6.833369,8.087354,90.0,90.0,109.4413
5033,Ba8Cl16,3.5421,2,5.909428,8.660989,15.64278,89.54655,90.43721,90.01457
5034,Co2Se2,0.1013,194,3.793103,3.79306,6.047047,90.0,90.0,120.0004
5035,Cl12Ti4,2.5287,15,6.426048,6.426048,12.66587,89.81787,89.81787,121.094
5036,Fe2Te4,0.6956,58,3.971981,5.323362,6.396183,90.0,90.0,90.0
5037,Er16O24,3.9644,206,9.134899,9.134899,9.134899,109.4712,109.4712,109.4712
5038,Pb1Se1,0.4035,225,4.389383,4.389383,4.389383,60.0,60.0,60.0
5039,Pd8S8,0.2778,84,6.516944,6.516944,6.679065,90.0,90.0,90.0
5040,N6O12,2.8821,204,7.751009,7.751009,7.751009,109.4712,109.4712,109.4712
5041,S2Zn2,2.7393,186,3.7962059999999997,3.7962059999999997,6.219183,90.0,90.0,119.9957
5042,Ca9N6,1.3475000000000001,12,7.780466,7.780466,9.36375,79.78952,79.78952,28.18487
5043,O4Ti2,2.2598000000000003,136,4.669338,4.669338,3.024272,90.0,90.0,90.0
5044,Cd2Se2,0.6901,186,4.374052,4.373659,7.133311,90.0,90.0,120.003
5045,S4Sn4,0.9593,62,4.078664,4.454786,11.63242,90.0,90.0,90.0
5046,Cd9I18,2.3895,156,4.312036,4.31201,65.43074,90.00196,90.0,120.0002
5047,O16Te8,2.382,61,5.307554,5.834035,13.99114,90.0,90.0,90.0
5048,O4Ti2,2.2629,136,4.674751,4.674751,3.025863,90.0,90.0,90.0
5049,Fe2Se2,0.43010000000000004,67,4.374194,4.374194,5.306002,90.0,90.0,92.67648
5050,Ca8Sn4,0.0931,62,5.094761,7.935226,9.610145,90.0,90.0,90.0
5051,Ni1O1,1.792,225,2.988934,2.988934,2.988934,60.0,60.0,60.0
5052,O8Ru2,2.4017,15,5.390802,5.390802,8.874573,66.00114,66.00114,50.83437
5053,Ga4S6,1.7458,9,6.495156,6.495267,7.105388,63.38599,63.38725,59.84437
5054,I2In2,1.2530000000000001,63,6.860939,6.860939,4.897542,90.0,90.0,138.6886
5055,Sb8Se12,0.7529,62,4.030827,11.545,12.82072,90.0,90.0,90.0
5056,Al2H6,2.4567,167,4.671651,4.671651,4.671651,56.12319,56.12319,56.12319
5057,Cd15I30,2.2417,156,4.312443,4.312443,109.4522,90.00218,89.99782,120.0009
5058,Al4O6,5.8498,167,5.180721,5.180721,5.180721,55.29749,55.29749,55.29749
5059,Ge32K32,0.9520000000000001,218,12.861650000000001,12.861650000000001,12.861650000000001,90.0,90.0,90.0
5060,Br1K1,3.9417,221,4.015284,4.015284,4.015284,90.0,90.0,90.0
5061,K4Te4,0.6612,194,5.662625,5.662435,12.37557,90.0,90.0,120.0011
5062,Cl8Tl4,2.2083,88,9.446861,9.446861,9.446861,135.557,135.557,64.6659
5063,F18Nd6,5.2613,165,7.147263,7.1472809999999996,7.31456,90.00027,89.99975,120.0011
5064,Fe4O6,1.2762,167,5.508699,5.508699,5.508699,55.74117,55.74117,55.74117
5065,As8S8,2.1018,15,7.422246,7.422246,9.49752,81.23136,81.23136,85.88314
5066,O14Ti8,1.7035,2,6.21102,7.079389,10.8133,88.55478,104.9195,109.464
5067,La2O3,3.7559,164,3.9909,3.990578,6.235042,89.9976,90.0,120.0027
5068,As16Mg24,1.4399,206,10.79584,10.79584,10.79584,109.4712,109.4712,109.4712
5069,Bi4Cs12,0.22210000000000002,225,9.49959,9.49959,9.49959,90.0,90.0,90.0
5070,Al2Te5,0.9747,12,7.526894,7.526894,10.31038,54.11862,54.11862,32.38083
5071,O16Si8,4.8046,132,8.23436,8.23436,5.560032,90.0,90.0,90.0
5072,C2Sr1,1.6702,139,4.485941,4.485941,4.485941,125.194,125.194,81.21693
5073,Bi2I6,2.4893,148,8.716671,8.716671,8.716671,52.9876,52.9876,52.9876
5074,Cd15I30,2.2448,156,4.31298,4.31298,109.0325,89.99795,90.00205,120.001
5075,Cs4Pt2,1.992,194,5.789658,5.789658,8.207733,90.0,90.0,119.9982
5076,B1N1,4.4561,216,2.56355,2.56355,2.56355,60.0,60.0,60.0
5077,O6Si3,5.7201,154,4.979701,4.979007,5.482716,90.01869,89.99551,120.0087
5078,Cs4Te4,0.981,55,5.079387,6.283523,11.83473,90.0,90.0,90.0
5079,As16S16,2.3932,14,18.50957,7.711669,9.879041,83.39453,90.0,90.0
5080,Ba8C16,2.877,62,5.552732,7.7682649999999995,9.77248,90.00228,90.0,90.0
5081,O8Sn4,0.1719,62,3.606084,5.394361,7.359315,90.0,90.0,90.0
5082,Br1K1,3.8802000000000003,221,4.042034,4.042034,4.042034,90.0,90.0,90.0
5083,N8Pt4,1.3078,205,4.852743,4.852743,4.852743,90.0,90.0,90.0
5084,In16Te12,0.1131,58,4.50067,12.97498,15.9043,90.0,90.0,90.0
5085,O4Si2,5.0183,136,4.232177,4.232177,2.692389,90.0,90.0,90.0
5086,Br1K1,3.9417,221,4.015284,4.015284,4.015284,90.0,90.0,90.0
5087,F2Sr1,6.7699,225,4.142695,4.142695,4.142695,60.0,60.0,60.0
5088,O10Te4,1.6697000000000002,4,4.794169,5.514356,8.164824,77.34771,90.0,90.0
5089,C2Si2,2.2898,186,3.091118,3.090943,5.075897,90.0,90.0,120.0019
5090,O16Si8,5.5473,15,7.235677,7.235677,7.231019,75.5054,75.5054,119.793
5091,Br1K1,3.8927,221,4.036489,4.036489,4.036489,90.0,90.0,90.0
5092,Al1P1,1.6293000000000002,216,3.893513,3.893513,3.893513,60.0,60.0,60.0
5093,Ce1O2,2.4183,225,3.8851009999999997,3.8851009999999997,3.8851009999999997,60.0,60.0,60.0
5094,C1Ru1,0.9585,216,3.219296,3.219296,3.219296,60.0,60.0,60.0
5095,Ru4S8,1.2719,205,5.67745,5.67745,5.67745,90.0,90.0,90.0
5096,O16Si8,5.5476,15,7.233629,7.233629,7.22279,75.54825,75.54825,119.8085
5097,Br1K1,4.3259,225,4.737818,4.737818,4.737818,60.0,60.0,60.0
5098,C120Sr6,0.30970000000000003,200,11.20579,11.20579,11.20579,90.0,90.0,90.0
5099,Dy8S12,0.5939,62,3.874326,10.477,10.65382,90.0,90.0,90.0
5100,Er1N1,0.123,225,3.4279859999999998,3.4279859999999998,3.4279859999999998,60.0,60.0,60.0
5101,Na6O6,1.7551,189,6.250636,6.25067,4.489223,90.0,90.0,120.0002
5102,Br6U2,2.5207,11,8.061013,8.085827,4.496436,90.0,90.0,119.7931
5103,As16S16,2.3524,14,18.11203,7.706657,9.90236,83.24145,90.0,90.0
5104,Li8S4,3.5615,186,3.971136,6.904306,6.7569669999999995,90.0,90.0,90.0
5105,Cr4O6,2.3735,167,5.44834,5.44834,5.44834,55.69942,55.69942,55.69942
5106,Na4Se4,0.4812,194,4.702814,4.702814,10.72741,90.0,90.0,119.9991
5107,Bi1Cs3,0.21080000000000002,225,6.726829,6.726829,6.726829,60.0,60.0,60.0
5108,I12Rb4,1.8437000000000001,62,6.970562,10.11559,11.03185,90.0,90.0,90.0
5109,As8Rh4,0.2066,14,6.161549,6.13291,6.222601,65.19271,90.0,90.0
5110,Li3N1,0.9867,191,3.648999,3.648999,3.888391,90.0,90.0,120.0041
5111,Ba2S6,1.3724,113,6.983635,6.983635,4.241751,90.0,90.0,90.0
5112,Mn1S1,0.8195,225,3.736027,3.736027,3.736027,60.0,60.0,60.0
5113,F4Mn2,2.5859,136,4.9716439999999995,4.9716439999999995,3.341936,90.0,90.0,90.0
5114,S1Sr1,2.4956,225,4.286771,4.286771,4.286771,60.0,60.0,60.0
5115,Ho12S18,1.4646,11,4.014015,10.16274,17.58357,81.39524,90.0,90.0
5116,O24Si12,5.5833,1,10.33563,9.168482,8.977135,81.0235,74.61761,55.92242
5117,Dy8Se12,0.36250000000000004,62,4.02998,10.99358,11.16321,90.0,90.0,90.0
5118,Ga4S4,1.6755,194,3.611808,3.611808,15.80316,90.0,90.0,119.9989
5119,O16Si8,5.586,14,4.897893,8.602409,8.826647,68.77802,90.0,90.0
5120,O4Zr2,3.8774,137,3.644289,3.644289,5.309116,90.0,90.0,90.0
5121,F8Pb4,4.3362,62,3.946105,6.55339,7.808858,90.0,90.0,90.0
5122,B1N1,4.4559,216,2.563742,2.563742,2.563742,60.0,60.0,60.0
5123,S2Zr1,1.0239,164,3.6897029999999997,3.6897029999999997,6.431813,90.00243,89.99757,120.0007
5124,Mn1S1,1.283,216,4.05706,4.05706,4.05706,60.0,60.0,60.0
5125,Al4O6,5.8493,167,5.180851,5.180851,5.180851,55.29682,55.29682,55.29682
5126,Cd1I2,2.463,164,4.31406,4.314034,7.306792,90.00275,90.0,120.0002
5127,I8O16,1.4575,14,7.04232,8.203254,8.334145,62.70252,90.0,90.0
5128,Gd6O9,3.5927,12,7.369459,7.369459,8.826668,79.96266,79.96266,28.16207
5129,Co6O8,0.32730000000000004,227,5.975695,5.975695,5.975695,60.0,60.0,60.0
5130,K16Sn16,0.7106,142,12.539,12.539,12.539,125.0888,125.0888,81.39092
5131,Cl1K1,5.0385,225,4.5164,4.5164,4.5164,60.0,60.0,60.0
5132,Br12Sb4,3.2734,19,4.467117,11.3897,13.72631,90.0,90.0,90.0
5133,N8Si6,3.3317,227,5.506809,5.506809,5.506809,60.0,60.0,60.0
5134,Al4O6,5.8502,167,5.181736,5.181736,5.181736,55.28131,55.28131,55.28131
5135,Ca2F4,6.236,26,3.542647,4.166523,5.987489,90.0,90.0,90.0
5136,F4Zn2,4.9536,136,4.696018,4.696018,3.068024,90.0,90.0,90.0
5137,O12S4,5.1275,14,4.158348,6.459935,9.581072,70.86033,90.0,90.0
5138,As1B1,1.2021,216,3.406469,3.406469,3.406469,60.0,60.0,60.0
5139,Li3N1,0.9844,191,3.651947,3.651947,3.888508,90.0,90.0,119.9976
5140,Ba1C2,1.613,139,4.791744,4.791744,4.791744,125.1502,125.1502,81.28946
5141,Pb1S1,0.46530000000000005,225,4.246152,4.246152,4.246152,60.0,60.0,60.0
5142,Te3Zn3,0.6417,152,4.302464,4.302822,9.741060000000001,89.99379,89.99999,119.998
5143,F1Li1,8.745,225,2.884268,2.884268,2.884268,60.0,60.0,60.0
5144,Cd7I14,2.3978,156,4.313189,4.313161,50.86757,89.99792,90.0,120.0002
5145,Pb1Te1,0.7938000000000001,225,4.63246,4.63246,4.63246,60.0,60.0,60.0
5146,C16Si16,1.9727999999999999,186,3.094217,3.094224,40.49245,90.0,90.0,119.9999
5147,Ge3O6,3.1219,154,5.034022,5.036332,5.762326,90.01935,89.99997,119.9904
5148,Br6In2,2.5749,12,6.899402,6.899402,7.171754,80.86048,80.86048,119.9507
5149,O8Si4,5.5088,9,5.089705,5.089705,8.531306,89.20867,89.20867,119.5615
5150,O1Zn1,1.6841,216,3.181166,3.181166,3.181166,60.0,60.0,60.0
5151,S20Zn20,2.6836,156,3.7984679999999997,3.798458,62.07117,89.99998,90.0,120.0001
5152,Ce1O2,2.4184,225,3.885064,3.885064,3.885064,60.0,60.0,60.0
5153,Cl8O16,0.9957,61,5.784787,7.111782,10.98044,90.0,90.0,90.0
5154,Na6P2,0.47740000000000005,194,4.929651,4.929651,8.78437,90.0,90.0,120.0045
5155,Br1Rb1,3.9455999999999998,221,4.191541,4.191541,4.191541,90.0,90.0,90.0
5156,O2Zn2,1.8193000000000001,186,3.197131,3.196924,5.1355,90.0,90.0,120.0021
5157,S26Zn26,2.6779,156,3.797535,3.797519,80.70273,90.00001,90.0,120.0001
5158,Al2N2,4.0638,186,3.127378,3.127378,5.020306,90.0,90.0,119.9962
5159,S2Sn1,1.3672,164,3.751538,3.751357,6.6648700000000005,89.99815,90.0,120.0016
5160,Li8P8,0.7993,14,4.9778400000000005,5.587076,9.094527,85.22119,90.0,90.0
5161,C2Yb1,0.1617,139,4.189433,4.189433,4.189433,125.4367,125.4367,80.81594
5162,O6Si3,5.695,152,4.994358,4.994505,5.485633,89.99142,90.0094,119.9942
5163,C4Ca2,1.9304999999999999,15,3.920669,3.920669,7.347955,75.84429,75.84429,64.95281
5164,F3Sc1,6.5706,221,4.123687,4.123687,4.123687,90.0,90.0,90.0
5165,Ag1F1,1.0812,225,3.5449,3.5449,3.5449,60.0,60.0,60.0
5166,Pb1S1,0.4691,225,4.247816,4.247816,4.247816,60.0,60.0,60.0
5167,Mg1O1,4.4693,225,3.007234,3.007234,3.007234,60.0,60.0,60.0
5168,Ge1Te1,0.37360000000000004,225,4.250736,4.250736,4.250736,60.0,60.0,60.0
5169,Co2S2,0.269,194,3.575432,3.5754859999999997,5.847738,90.0,90.0,119.9995
5170,Au4Br4,2.2892,141,6.925636,6.925636,6.925636,117.0773,117.0773,95.14147
5171,Se4Sn4,0.664,62,4.244638,4.614482,11.897780000000001,90.0,90.0,90.0
5172,O16Ti8,2.5715,61,5.264365,5.544503,9.353011,90.0,90.0,90.0
5173,As8S8,2.0187,15,7.255144,7.255144,9.533611,80.97821,80.97821,85.25263
5174,S2Sn1,1.3515000000000001,164,3.747121,3.747121,6.34439,90.00108,89.99892,120.0
5175,O6Ti4,0.8476,167,5.488813,5.488813,5.488813,57.7345,57.7345,57.7345
5176,O4Ti2,2.2721999999999998,136,4.6714649999999995,4.6714649999999995,3.022593,90.0,90.0,90.0
5177,Cd1S1,1.1898,216,4.181308,4.181308,4.181308,60.0,60.0,60.0
5178,S2Ti1,0.5347000000000001,164,3.474231,3.47424,6.237119,89.9999,90.0,119.9999
5179,As1Ga1,0.2947,216,4.055382,4.055382,4.055382,60.0,60.0,60.0
5180,Ba8Ge16,0.487,62,6.860303,9.196476,11.67801,90.0,90.0,90.0
5181,Ge3O6,3.1342,152,5.027503,5.028389,5.757343,90.00871,89.99866,119.9958
5182,F18S3,6.0973,2,14.80118,6.659625,5.132256,95.81827,94.90799,91.26482
5183,Rb2Se1,1.7992,225,5.741751,5.741751,5.741751,60.0,60.0,60.0
5184,Se4Sn4,0.6434000000000001,62,4.281956,4.5245,12.00287,90.0,90.0,90.0
5185,Mn1Se1,0.39830000000000004,225,3.91505,3.91505,3.91505,60.0,60.0,60.0
5186,O8Zr4,3.4624,14,5.29255,5.213539,5.387252,80.45535,90.0,90.0
5187,Mn1S1,0.8195,225,3.736024,3.736024,3.736024,60.0,60.0,60.0
5188,Ge2S4,2.5103,122,6.09858,6.09858,6.09858,123.6745,123.6745,83.74528
5189,Bi4I12,2.2696,14,12.846870000000001,8.42135,8.032111,65.55382,90.0,90.0
5190,O6Si3,5.7049,154,4.97984,4.979568,5.451406,90.0065,89.99501,120.0052
5191,K2O1,1.7127,225,4.584356,4.584356,4.584356,60.0,60.0,60.0
5192,Fe2Te4,0.7009000000000001,58,3.9719189999999998,5.324631,6.399544,90.0,90.0,90.0
5193,Ba3Cl6,4.5703,189,8.187748,8.187613,4.712818,90.0,90.0,120.0005
5194,Cl16Nb6,0.43420000000000003,164,6.832244,6.832244,13.3007,90.00041,89.99959,120.0196
5195,Cd10I20,2.3835,156,4.311828,4.311828,72.66537,90.00206,89.99794,120.001
5196,Mn2S2,1.4,186,4.062978,4.062551,6.570792,90.0,90.0,120.0035
5197,Se2Zr1,0.2949,164,3.803504,3.803468,6.53063,90.00324,90.0,120.0003
5198,Cr4O6,2.3734,167,5.449003,5.449003,5.449003,55.68665,55.68665,55.68665
5199,Cl18W3,1.8452000000000002,164,11.31052,11.31052,6.142546,90.00042,89.99958,119.9999
5200,I4O12,1.8703,2,5.393365,6.904925,6.86755,98.89645,104.8714,95.20693
5201,Br1Na1,4.1143,225,4.249791,4.249791,4.249791,60.0,60.0,60.0
5202,Sn1Te1,0.0745,225,4.562433,4.562433,4.562433,60.0,60.0,60.0
5203,Mg2Si1,0.2331,225,4.488119,4.488119,4.488119,60.0,60.0,60.0
5204,Ge32Rb32,1.0569,218,13.32268,13.32268,13.32268,90.0,90.0,90.0
5205,P8Rh4,0.24910000000000002,14,5.837526,5.773352,5.8749389999999995,67.22426,90.0,90.0
5206,Cs4F4,5.2752,225,6.108904,6.108904,6.108904,90.0,90.0,90.0
5207,N8Si6,4.2497,176,7.662112,7.6620539999999995,2.9248279999999998,90.0,90.0,120.0005
5208,O6Si3,5.6893,154,5.008246,5.007971,5.490003,90.00049,90.00028,120.0006
5209,O6Si3,5.7168,154,4.974778,4.974901,5.469084,89.99968,89.99971,120.0002
5210,Mg1O1,4.4689,225,3.007273,3.007273,3.007273,60.0,60.0,60.0
5211,O2Pd2,0.178,131,3.099574,3.099574,5.423299,90.0,90.0,90.0
5212,As2Cl10,1.4361000000000002,59,6.795601,7.76662,8.115038,90.0,90.0,90.0
5213,Br24Si12,2.4027,15,11.0468,11.0468,15.23389,72.5977,72.5977,57.6268
5214,F8Pd4,1.7724000000000002,205,5.443949,5.443949,5.443949,90.0,90.0,90.0
5215,C4N8,3.5681000000000003,122,4.8928519999999995,4.8928519999999995,4.8928519999999995,97.08131,97.08131,138.8896
5216,F18Pr6,4.155,182,7.182895,7.179148,7.150771,90.0,90.0,120.0173
5217,Li3N1,0.9852000000000001,191,3.649746,3.649807,3.889101,90.0,90.0,120.0006
5218,Br1K1,3.8662,221,4.048284,4.048284,4.048284,90.0,90.0,90.0
5219,In16O24,1.1144,206,8.868797,8.868797,8.868797,109.4712,109.4712,109.4712
5220,Cd1Te1,0.7092,216,4.667942,4.667942,4.667942,60.0,60.0,60.0
5221,O4Ti2,2.266,136,4.671296,4.671296,3.022699,90.0,90.0,90.0
5222,O8Zr4,3.464,14,5.285282,5.217904,5.399236,80.38078,90.0,90.0
5223,Cl36Pt12,1.2142,148,13.19931,13.19775,13.19779,115.2259,115.227,115.2357
5224,As16S16,2.4016,14,18.94377,7.632994,9.746847,83.02347,90.0,90.0
5225,Cd8P16,1.4497,92,5.353667,5.353667,19.99379,90.0,90.0,90.0
5226,Ce1O2,2.4183,225,3.885099,3.885099,3.885099,60.0,60.0,60.0
5227,N6O12,0.995,199,7.840486,7.840486,7.840486,109.4712,109.4712,109.4712
5228,S8Ti4,0.165,227,7.052043,7.052043,7.052043,60.0,60.0,60.0
5229,F1Na1,6.1349,225,3.313322,3.313322,3.313322,60.0,60.0,60.0
5230,Al2N2,3.2558,194,3.309567,3.309567,4.191431,90.0,90.0,119.8132
5231,H16N16,3.5944000000000003,53,3.95716,9.870071,9.707061,90.0,90.0,90.0
5232,O8Ti4,2.9254,35,6.617429,6.617429,11.40493,90.0,90.0,122.4525
5233,Li2O1,4.9032,225,3.289156,3.289156,3.289156,60.0,60.0,60.0
5234,Bi8O12,1.597,114,7.978482,7.978482,5.730793,90.0,90.0,90.0
5235,I1Rb1,3.7965,225,5.278768,5.278768,5.278768,60.0,60.0,60.0
5236,Cl2Sr1,5.2217,225,4.984137,4.984137,4.984137,60.0,60.0,60.0
5237,O4Ti2,2.2603,136,4.675204,4.675204,3.025377,90.0,90.0,90.0
5238,Cd1S1,1.1883,216,4.182198,4.182198,4.182198,60.0,60.0,60.0
5239,Cl4Mg2,3.4571,40,4.358851,4.358851,9.592322,90.0,90.0,60.93131
5240,Au4S2,1.9593,224,5.356923,5.356923,5.356923,90.0,90.0,90.0
5241,In2Se2,0.3269,160,8.914773,8.914773,8.914773,26.45219,26.45219,26.45219
5242,O24Sc16,4.275,206,8.701809,8.701809,8.701809,109.4712,109.4712,109.4712
5243,Rb4Te2,1.3776,194,6.14297,6.14297,8.121395,90.0,90.0,119.9988
5244,Ba1F2,6.6176,225,4.438083,4.438083,4.438083,60.0,60.0,60.0
5245,B24Si8,1.4144,74,8.173793,8.173793,8.173793,135.2571,118.3496,79.33173
5246,C4Ca2,1.9497,15,3.9219619999999997,3.9219619999999997,7.343845,76.1049,76.1049,64.80338
5247,Mg1Se1,2.5506,216,4.242215,4.242215,4.242215,60.0,60.0,60.0
5248,O4V2,0.7257,136,4.513187,4.513187,3.03093,90.0,90.0,90.0
5249,Br20Pa4,1.9147,14,13.44957,8.501815,12.21857,96.98487,90.0,90.0
5250,O6Si3,5.7025,152,4.989534,4.9892900000000004,5.482712,90.00149,90.00003,120.002
5251,Al4Br12,3.1356,14,8.944997,7.2077539999999996,13.20031,87.35303,90.0,90.0
5252,B1N1,4.4562,216,2.563494,2.563494,2.563494,60.0,60.0,60.0
5253,Cd1F2,3.0496,225,3.871902,3.871902,3.871902,60.0,60.0,60.0
5254,As8S8,2.0633,15,7.31315,7.31315,9.576028,81.23579,81.23579,85.65707
5255,Br2In2,1.1846,63,6.695574,6.695574,4.648234,90.0,90.0,139.8407
5256,Cd1Te1,0.7092,216,4.667961,4.667961,4.667961,60.0,60.0,60.0
5257,Al1P1,1.6282,216,3.892793,3.892793,3.892793,60.0,60.0,60.0
5258,Pb2S2,1.1637,63,6.43902,6.43902,4.292869,90.0,90.0,142.0341
5259,O4Si2,5.0065,136,4.233033,4.233033,2.693208,90.0,90.0,90.0
5260,Sb12Sr20,0.0951,62,8.817954,10.10186,13.51124,90.0,90.0,90.0
5261,S1Sn1,0.2519,216,4.643658,4.643658,4.643658,60.0,60.0,60.0
5262,Mg2Si1,0.23520000000000002,225,4.490868,4.490868,4.490868,60.0,60.0,60.0
5263,As2Te3,0.4058,166,10.3673,10.36723,10.36723,22.78427,22.78397,22.78397
5264,Mn4S8,1.228,205,5.647769,5.647769,5.647769,90.0,90.0,90.0
5265,O4Zr2,3.8966000000000003,137,3.642982,3.642982,5.323587,90.0,90.0,90.0
5266,C1Si1,1.3704,216,3.096544,3.096544,3.096544,60.0,60.0,60.0
5267,C6N8,1.4461,187,4.784114,4.784114,7.536702,90.0,90.0,120.0008
5268,O4Ti2,2.2607,136,4.670427,4.670427,3.024185,90.0,90.0,90.0
5269,O8Si4,5.5508,92,5.03418,5.03418,7.023592,90.0,90.0,90.0
5270,Sb8Zn8,0.16790000000000002,61,6.22066,7.81055,8.163621,90.0,90.0,90.0
5271,F18Mn6,0.6571,15,5.280462,5.280462,13.72208,87.79347,87.79347,59.26198
5272,Au4S2,1.9592,224,5.3569700000000005,5.3569700000000005,5.3569700000000005,90.0,90.0,90.0
5273,Fe4Si4,0.8731,198,4.42076,4.42076,4.42076,90.0,90.0,90.0
5274,C1I4,1.0643,121,6.7806239999999995,6.7806239999999995,6.7806239999999995,121.4292,121.4292,87.54184
5275,As8Ir4,0.7415,14,6.131659,6.116989,6.221316,66.77632,90.00002,90.00004
5276,F18S3,5.8653,12,8.379049,8.379049,4.964882,85.29842,85.29842,60.89917
5277,Cd1I2,2.4575,164,4.310018,4.310018,7.277603,90.00465,89.99535,120.0018
5278,N8Si6,4.2484,176,7.6609300000000005,7.660862,2.9247829999999997,90.0,90.0,119.9977
5279,Ba1F2,6.6145,225,4.439152,4.439152,4.439152,60.0,60.0,60.0
5280,C1Si1,1.3705,216,3.096546,3.096546,3.096546,60.0,60.0,60.0
5281,Cr4O6,2.3744,167,5.45079,5.45079,5.45079,55.66734,55.66734,55.66734