,full_formula,band_gap,spacegroup.number,structure.lattice.a,structure.lattice.b,structure.lattice.c,structure.lattice.alpha,structure.lattice.beta,structure.lattice.gamma
12975,Ba1H9Re1,3.025,155,4.7859549999999995,4.7859549999999995,4.7859549999999995,95.7337,95.7337,95.7337
12976,F3Mg3N1,3.5775,221,4.262206,4.262206,4.262206,90.0,90.0,90.0
12977,Er4O26Te10,3.0031,2,6.9861059999999995,8.747182,10.71261,89.20402,87.23243,74.75542
12978,H6Li2O4,4.7603,12,5.608555,5.608555,3.224969,76.28516,76.28516,96.43341
12979,As2O8Sb2,3.0616,11,7.107744,4.95579,5.669932,84.13993,90.0,90.0
12980,Ca1Pd1Te1,0.24350000000000002,216,4.720631,4.720631,4.720631,60.0,60.0,60.0
12981,Ga1O3Sb1,0.9314,221,3.855717,3.855717,3.855717,90.0,90.0,90.0
12982,Ba8Ga4S14,2.6551,11,7.202494,9.135817,11.97745,70.96168,89.99849,89.99764
12983,Cs2S4Tb2,2.2114,194,4.124427,4.124448,16.10682,90.0,90.0,119.9998
12984,Cl20K8U4,3.0131,62,8.195681,8.89937,13.06371,90.0,90.0,90.0
12985,Bi1Dy1Ni1,0.0017000000000000001,216,4.567913,4.567913,4.567913,60.0,60.0,60.0
12986,In1W2Y1,0.0269,216,4.805868,4.805868,4.805868,60.0,60.0,60.0
12987,Cr1Ta2Zn1,0.123,216,4.465927,4.465927,4.465927,60.0,60.0,60.0
12988,C2S6Tl4,1.8796,15,6.593421,6.593421,9.528233,69.61026,69.61026,79.39316
12989,I6Na2U1,2.1433,148,8.671457,8.671457,8.671457,54.49388,54.49388,54.49388
12990,O40Pb4S12,4.7003,60,8.226301,8.844557,11.21057,90.0,90.0,90.0
12991,O8Si2Zr2,4.4622,141,5.62233,5.62233,5.62233,106.7697,106.7697,115.021
12992,Ba4Ga8P8,1.4206,14,9.749558,7.4302019999999995,7.467476,64.76888,90.0,90.0
12993,In1Na1S2,1.9152,166,7.040797,7.040797,7.040797,31.662,31.662,31.662
12994,Au1F3Ni1,0.7731,221,4.023764,4.023764,4.023764,90.0,90.0,90.0
12995,La4Mn8O20,1.1144,55,5.862886,7.808729,8.841333,90.0,90.0,90.0
12996,In4Na12S12,2.3287,15,10.49205,10.49205,7.422221,69.34682,69.34682,80.21872
12997,Bi2O8P2,3.7432,11,7.242337,4.796042,4.841663,83.70332,90.0,90.0
12998,Mo2O8Zr1,3.0476,164,5.969755,5.969767,6.268854,90.00156,90.0,119.9999
12999,Al2Hg1Se4,1.4393,82,6.852367,6.852367,6.852367,129.2901,129.2901,74.54425
13000,Cl36Nb4Te4,2.4311,15,11.86331,11.86331,20.3808,73.21125,73.21125,33.558
13001,O22Pb2V12,0.5636,63,5.910744,5.92031,13.37724,90.0,90.0,119.9466
13002,Br2Cs1F1,1.7449,123,4.390414,4.390414,7.371687,90.0,90.0,90.0
13003,As2Mn1O6,1.748,162,4.885854,4.885853,4.775953,90.00096,90.001,120.0022
13004,La4O14Ti4,3.2614,227,7.501379,7.501379,7.501379,60.0,60.0,60.0
13005,Cd1Li2Se1,0.0731,225,4.790481,4.790481,4.790481,60.0,60.0,60.0
13006,F12Mn2Na6,1.3051,14,6.180658,5.759556,8.300445,72.90583,90.0,90.0
13007,P4Pb4Se12,1.6299000000000001,14,7.803802,7.118421,9.846101,88.14566,90.0,90.0
13008,Cl24Os2Se4,1.0197,43,12.76617,12.59528,8.919193,70.44088,68.38546,41.17366
13009,Ba4Ca4Si4,0.1816,62,5.079705,8.567892,9.20051,90.0,90.0,90.0
13010,La4O16Ta4,3.7052,14,5.658252,7.8117,7.907218,78.54068,90.0,90.0
13011,F3In1Xe1,0.2364,221,4.413711,4.413711,4.413711,90.0,90.0,90.0
13012,Hg4O12Se4,2.5938,14,10.37834,4.664284,7.494919,76.65791,90.0,90.0
13013,Ba1O3Ti1,2.1365,221,4.058499,4.058499,4.058499,90.0015,90.0015,90.0015
13014,Fe2O7P2,0.1188,2,3.70122,7.311476,8.045534,79.53109,105.4559,104.0916
13015,Ho1Te2Tl1,0.6348,166,8.60272,8.60272,8.60272,29.82679,29.82679,29.82679
13016,Ce4Cl4Te4,0.8327,62,4.491539,8.005628,9.454733,90.0,90.0,90.0
13017,F8Sr2Zn2,5.8471,88,7.073114,7.073114,7.073114,134.5106,134.5106,66.29152
13018,Li4O8S2,5.99,63,4.979117,4.979117,6.197852,90.0,90.0,111.9014
13019,Ir1O3Y1,0.2781,221,3.9768600000000003,3.9768600000000003,3.9768600000000003,90.0,90.0,90.0
13020,Mn8O20Pr4,1.0839,55,5.840901,7.667081,8.767713,90.0,90.0,90.0
13021,Ga12Rb4S20,2.6001000000000003,14,12.8994,7.237913,10.59101,75.66844,90.0,90.0
13022,C2N2Na2,5.0443,59,3.645819,4.881594,5.514906,90.0,90.0,90.0
13023,Ag32S24Sn4,0.5904,33,7.705517,10.92739,15.6558,90.0,90.0,90.0
13024,Mg6Mn1O8,2.2626,225,5.995177,5.995177,5.995177,60.0,60.0,60.0
13025,Cl8Li4Zn2,4.5538,227,7.323368,7.323368,7.323368,60.0,60.0,60.0
13026,Ho8O28Si8,4.6154,2,6.633723,6.669125,12.107,94.51549,91.25954,91.94842
13027,Ag12B4O12,0.8140000000000001,167,7.445633,7.445633,7.445633,84.82348,84.82348,84.82348
13028,Al2F8Tl2,4.2407,140,7.465768,7.465768,7.465768,139.1474,139.1474,59.15018
13029,Al8O20Si4,5.4027,2,7.204661,5.6361609999999995,7.934657,89.8999,106.0072,101.1366
13030,In2Na2Te4,0.6568,140,6.958652,6.958652,6.958652,105.7901,105.7901,117.1146
13031,Cu2Hg1I4,0.9403,121,7.759982,7.759982,7.759982,133.1499,133.1499,68.41878
13032,Pd4Se6Tl2,0.1648,164,7.487604,7.487602,5.950663,90.00067,89.99933,120.0006
13033,Ca8Mn4O16,0.34590000000000004,142,12.79456,12.79456,12.79456,156.3196,156.3196,33.73647
13034,Ca1O6Sb2,2.7677,162,5.318085,5.318327,5.111536,89.99894,90.00212,119.9985
13035,Al6F36Li18,7.6047,15,8.400037,8.400037,10.06103,86.55558,86.55558,61.06283
13036,Ba12P16Sn8,0.8054,14,19.66244,7.9973469999999995,8.020141,67.2335,90.0,90.0
13037,Na1Nb1O3,1.8345,221,3.987604,3.987604,3.989204,90.0,90.0,90.0
13038,Ca1F3Rb1,6.3866,221,4.520392,4.520392,4.520392,90.0,90.0,90.0
13039,Br12N12S16,1.7159,14,9.338783,6.490028,18.64902,87.20812,90.0,90.0
13040,Sc1Te2Tl1,0.3698,166,8.50688,8.50688,8.50688,29.34116,29.34116,29.34116
13041,Cd1F3Na1,2.9383,221,4.411653,4.411653,4.411653,90.0,90.0,90.0
13042,Fe4Mo4O16,1.4666000000000001,12,6.718279,6.718279,7.888456,72.29174,72.29174,84.77512
13043,Br2O8Y6,4.2091,63,6.254055,6.254055,11.72287,90.0,90.0,141.6817
13044,O22Sr2V12,0.20500000000000002,63,6.681298,5.98763,12.79681,90.0,90.0,123.9124
13045,Ga4O24S6,4.4667,148,8.75879,8.75879,8.75879,55.56536,55.56536,55.56536
13046,I8P16Se12,1.7079,62,7.342337,10.60212,16.72246,90.0,90.0,90.0
13047,Ca2Ge4O10,2.4006,1,5.503653,5.608626,7.724279,60.66895,66.45163,73.34643
13048,Be1H3Na1,0.9136000000000001,221,3.34382,3.34382,3.34382,90.0,90.0,90.0
13049,Rb1S2Ti1,1.9154,160,7.912341,7.912341,7.912341,27.94635,27.94635,27.94635
13050,Cl18Cs6Sc4,4.2808,167,9.794827,9.794827,9.794827,83.28691,83.28691,83.28691
13051,Bi4Cu12S12,1.0128,19,6.791864,7.727716,10.41395,90.0,90.0,90.0
13052,Ga1O3Ta1,1.1025,221,4.03446,4.03446,4.03446,90.0,90.0,90.0
13053,Rb8Re12S24,1.3745,15,9.929562,9.929562,12.19816,88.85656,88.85656,60.28143
13054,Co2Hf1W1,0.0369,216,4.315721,4.315721,4.315721,60.0,60.0,60.0
13055,Ba4F20Sb4,4.7432,57,4.813021,9.51921,11.39875,90.0,90.0,90.0
13056,F12P4Pt1,4.9912,217,7.458102,7.458102,7.458102,109.4712,109.4712,109.4712
13057,Cd1Cr1Ta2,0.1332,216,4.590751,4.590751,4.590751,60.0,60.0,60.0
13058,Ge4Na12Se12,1.8811,14,12.01523,8.229904,8.402949,61.25295,90.0,90.0
13059,Cl4Cs2Li2,5.0323,129,4.9486930000000005,4.9486930000000005,9.660271999999999,90.0,90.0,90.0
13060,As8Na8O16,3.5218,61,5.193685,6.813177,15.07673,90.0,90.0,90.0
13061,Al8F32K8,6.9172,62,7.369705,8.446785,12.10543,90.0,90.0,89.99854
13062,Cu4Se14U6,0.49810000000000004,173,10.30102,10.30101,6.030662,90.0,90.0,120.0006
13063,O14Sr2V6,2.0588,59,5.363372,5.578879,10.6042,90.0,90.0,90.0
13064,Br12Nb4Te4,1.8747,13,9.38893,9.691668,16.49372,91.58558,90.0,90.0
13065,Cl12Na6Y2,4.9269,14,7.483698,6.953692,12.43073,122.8119,90.0,90.0
13066,Mg4O16Sb8,2.5473,135,6.080216,8.592815,8.592815,90.0,90.0,90.0
13067,Cl28Sn4W6,0.8266,173,9.772133,9.771983,13.16032,90.0,90.0,119.9926
13068,F8Pb2Sn2,3.5444,129,4.438106,4.438106,10.67993,90.0,90.0,90.0
13069,Mn8O18Ta4,2.5239000000000003,165,5.404486,5.404488,14.54359,90.00035,90.0,120.0
13070,Na2O4Tb2,3.9546,141,6.169689,6.169689,6.169689,135.7832,135.7832,64.31577
13071,Bi1Rh1Zr1,0.8889,216,4.545009,4.545009,4.545009,60.0,60.0,60.0
13072,As4S16Tl12,0.0658,62,9.781459,10.08377,10.06088,90.0,90.0,90.0
13073,Ge2Te8Zr2,0.2983,36,8.547801,8.5478,11.14219,90.00003,89.99998,152.7323
13074,Mg4O12Si4,4.5387,15,6.533465,6.533465,5.060435,80.55449,80.55449,86.46059
13075,O12Sb4Zn2,0.7321000000000001,136,4.718777,4.718777,9.346344,90.0,90.0,90.0
13076,Ge4Mn8O16,0.29610000000000003,74,8.175924,8.175924,8.175924,136.0556,114.2155,82.51981
13077,Bi4Cs12O12,3.0558,198,9.442325,9.442325,9.442325,90.0,90.0,90.0
13078,Cu4Mg2O6,0.0217,59,3.219261,4.040192,9.45791,90.0,90.0,90.0
13079,Ba2Cl1H3,2.0925,164,4.442743,4.442744,7.368366,90.00009,89.99989,120.0009
13080,O12Pb4Te4,2.6943,76,5.44067,5.44067,12.22895,90.0,90.0,90.0
13081,Mn6O12Te2,0.78,148,6.329086,6.329086,6.329086,90.60526,90.60526,90.60526
13082,I16In4Na4,2.4737999999999998,14,8.076761,8.73255,16.09324,86.91609,90.0,90.0
13083,Ag2In2Se4,0.4035,122,7.422805,7.422805,7.422805,130.3752,130.3752,72.80758
13084,Cs2F6Ni2,4.7672,194,6.345857,6.345857,5.290872,90.0,90.0,120.001
13085,B8Be4C8,0.22,59,4.700167,5.432038,6.134613,90.0,90.0,90.0
13086,Al4Eu2S8,3.056,66,6.048256,6.048256,10.57288,90.0,90.0,120.8217
13087,Ba32P32Ti8,1.1416,218,13.30938,13.30938,13.30938,90.0,90.0,90.0
13088,Rb32S32Sn8,2.2558,218,13.71934,13.71934,13.71934,90.0,90.0,90.0
13089,Hg1Pd1Y2,0.162,216,4.985526,4.985526,4.985526,60.0,60.0,60.0
13090,O56Sr16V16,3.433,76,7.196527,7.196527,26.1053,90.0,90.0,90.0
13091,Cs18Ge24Zn3,1.0942,42,16.26779,13.40409,12.83904,76.58219,53.2711,50.14671
13092,Er4O56P20,5.4563,62,8.794516999999999,9.07718,12.79849,90.0,90.0,90.0
13093,Ca4Ge2O8,3.5254,164,5.803933,5.803937,6.869995,90.00085,89.99919,120.0027
13094,Li1Sb1Zn1,0.6798000000000001,216,4.444657,4.444657,4.444657,60.0,60.0,60.0
13095,F32S8W8,3.1988,29,5.737677,9.833696,17.62968,90.0,90.0,90.0
13096,Al8O14Sr2,3.2358000000000002,67,8.205233,8.205233,4.839423,90.0,90.0,111.3909
13097,Ag4Sb4Te8,0.02,227,8.74175,8.74175,8.74175,60.0,60.0,60.0
13098,Bi8O24Si6,3.9056,220,9.03764,9.03764,9.03764,109.4712,109.4712,109.4712
13099,As2O8Sc2,3.5213,141,5.774123,5.774123,5.774123,106.8196,106.8196,114.9155
13100,Br10K2Sn4,2.3535,140,9.614156,9.614156,9.614156,127.6056,127.6056,77.26489
13101,B4H24N4,5.4316,62,4.920154,6.611726,7.9839,90.0,90.0,90.0
13102,Al4Mg2O8,5.1132,227,5.776813,5.776813,5.776813,60.0,60.0,60.0
13103,I4S4Sb4,1.6219000000000001,33,4.117591,9.016968,10.75041,90.0,90.0,90.0
13104,K1Te2Y1,1.3094000000000001,166,8.622199,8.622199,8.622199,30.27875,30.27875,30.27875
13105,Bi4Mn8O20,0.3019,55,5.887708,7.686045,8.655556,90.0,90.0,90.0
13106,Ca2O6Ti2,2.7876000000000003,140,5.454686,5.454686,5.520725,119.6087,119.6087,89.99369
13107,O3Sr1Zr1,3.2147,221,4.198498,4.198498,4.198498,90.0,90.0,90.0
13108,As12Ce1Fe4,0.1511,204,7.219334,7.219334,7.219334,109.4712,109.4712,109.4712
13109,Rb2Se1Zn1,1.7689,225,5.937967,5.937967,5.937967,60.0,60.0,60.0
13110,F3Ga1Sr1,4.0149,221,4.730637,4.730637,4.730637,90.0,90.0,90.0
13111,F3Ru1Sr1,0.2452,221,4.718543,4.718543,4.718543,90.0,90.0,90.0
13112,Ca4Fe8O16,1.371,62,2.980059,9.316105,10.85746,90.0,90.0,90.0
13113,Ga12I4Te12,1.1676,62,4.161925,11.35538,19.93407,90.0,90.0,90.0
13114,Br8K4Zn2,3.9148,4,7.612236,7.374453,9.200125,71.38861,90.0,90.0
13115,As4B2K6,1.3071000000000002,15,6.68732,6.68732,9.252648,74.73827,74.73827,86.73922
13116,Hg1Pd1Y2,0.162,216,4.985526,4.985526,4.985526,60.0,60.0,60.0
13117,Ca4O12Si4,3.5901,204,6.250024,6.250024,6.250024,109.4712,109.4712,109.4712
13118,Ca4Ge8O20,2.6532,55,5.80676,7.437393,8.394837,90.0,90.0,90.0
13119,Na1Nb1O3,1.8346,221,3.9872639999999997,3.9872639999999997,3.987643,90.0,90.0,90.05245
13120,In8S16Tl8,1.3773,15,7.86839,7.86839,15.372160000000001,82.62922,82.62922,90.00147
13121,Cl4La4Se4,1.2934,62,4.386582,7.708499,9.254964,90.0,90.0,90.0
13122,Mg8O16Si4,4.4941,74,7.692222,7.692222,7.692222,135.9943,114.2033,82.57394
13123,Cr1La1O3,1.7885,221,3.940888,3.940888,3.940888,90.0,90.0,90.0
13124,Li2O10V4,0.5114000000000001,36,5.583342,5.583342,11.84075,90.0,90.0,149.8179
13125,Al4Mg2O8,5.1114,227,5.777113,5.777113,5.777113,60.0,60.0,60.0
13126,Cl6Cs2Mg2,5.1151,194,7.43371,7.43371,6.268971,90.0,90.0,120.0087
13127,Hf8O24Pb8,2.7002,55,5.894593,8.239958,11.78126,90.0,90.0,90.0
13128,Ga8K8Te16,1.2528000000000001,15,8.455307,8.455307,16.82611,82.79675,82.79675,89.8053
13129,B4Ba2Se12,1.7041,64,6.934861,6.934861,10.66598,90.0,90.0,111.7588
13130,Cr4Mg2O8,2.7652,227,6.000259,6.000259,6.000259,60.0,60.0,60.0
13131,K1O3Ta1,2.3226,221,4.043713,4.043713,4.043713,90.0,90.0,90.0
13132,Cl4Cu4Te8,0.7259,14,5.122985,8.239458,11.41514,76.44923,90.0,90.0
13133,N12Ta4Th4,0.8261000000000001,62,5.797483,5.851722,8.214143,90.0,90.0,90.0
13134,Li6O6U1,3.1779,148,5.491947,5.491947,5.491947,101.045,101.045,101.045
13135,Fe4Rb12S12,1.3117,14,13.23209,8.058469,8.551871,78.83116,90.0,90.0
13136,Ba1O3Zr1,3.0365,221,4.256976,4.256976,4.256976,90.0,90.0,90.0
13137,Mo2Ni2O8,1.8829,13,5.7717849999999995,4.647712,4.9350819999999995,89.40138,90.0,90.0
13138,Mg2O6Ti2,3.8268,148,5.551468,5.551468,5.551468,55.1483,55.1483,55.1483
13139,F3Na1Zn1,4.7238,221,3.953088,3.953088,3.953088,90.0,90.0,90.0
13140,O14Sn4Tb4,2.2304,227,7.50562,7.50562,7.50562,60.0,60.0,60.0
13141,Rb8Re12Se24,1.0876,15,10.33543,10.33543,12.66217,88.95517,88.95517,59.78311
13142,Ba2In4Te8,0.9765,66,7.123788,7.123788,12.39727,90.0,90.0,119.1568
13143,Al20O48Y12,4.4955,230,10.50125,10.50125,10.50125,109.4712,109.4712,109.4712
13144,Gd2O8V2,2.9365,141,6.074736,6.074736,6.074736,106.1813,106.1813,116.2726
13145,Ba1Cu3O4,0.6704,65,6.210762,6.210762,3.993605,90.0,90.0,126.684
13146,Li1N1Zn1,1.3002,216,3.425254,3.425254,3.425254,60.0,60.0,60.0
13147,C2Cd2O6,2.7801,167,6.22429,6.22429,6.22429,47.41511,47.41511,47.41511
13148,Al2Ce2O6,3.4916,167,5.376541,5.376541,5.376541,60.14019,60.14019,60.14019
13149,H8Li4Mg2,3.5256,55,2.912974,4.882156,9.23401,90.0,90.0,90.0
13150,Co2F8Li2,2.4792,14,4.729855,5.510979,5.616468,66.10974,90.0,90.0
13151,Rb8S26Tc12,0.8568,15,9.801988,9.801988,14.2172,85.43593,85.43593,119.2532
13152,Fe4La4O12,1.0895,62,5.693787,5.626894,7.980041,90.0,90.0,90.0
13153,Bi1F3W1,0.122,221,4.675011,4.675011,4.675011,90.0,90.0,90.0
13154,Cu6Mo6O24,1.5783,2,10.40193,8.499233,6.85957,79.02302,67.86514,75.98497
13155,Cl4K2Pd1,2.1861,123,7.165532,7.165532,4.181106,90.0,90.0,90.0
13156,Eu4Nb8O24,0.7012,14,5.646261,7.727244,11.20824,89.87995,90.0,90.0
13157,Ag8O24Te8,1.8334000000000001,14,7.0831669999999995,6.597944,13.427810000000001,90.15547,90.0,90.0
13158,Ge8I8S12,2.1739,147,11.07814,11.07794,9.846245,89.99543,90.0007,120.0084
13159,Cu2Hg1I4,0.9407000000000001,121,7.71292,7.71292,7.71292,132.821,132.821,68.93538
13160,Nb1Ru1Sb1,0.5953,216,4.375214,4.375214,4.375214,60.0,60.0,60.0
13161,N4O2Si4,4.9458,36,5.265778,5.265778,4.888669,90.0,90.0,116.5394
13162,Cr4F12O4,2.0345,76,5.299944,5.299944,9.111812,90.0,90.0,90.0
13163,F6Rb3Tl1,3.1642,139,6.975305,6.975305,6.975305,119.5124,119.5124,90.84669
13164,Mg16O48Si16,4.6727,61,5.237805,8.93855,18.44917,90.0,90.0,90.0
13165,K2Ni1O2,2.3358,139,7.066582,7.066582,7.066582,147.3659,147.3659,46.82229
13166,Ga3O12P3,4.5222,152,4.99026,4.99026,11.21418,90.0,90.0,120.0
13167,Ag28P4S24,1.2333,198,10.59839,10.59839,10.59839,90.0,90.0,90.0
13168,La1Rb1Se2,2.0459,166,8.435501,8.435501,8.435501,30.88099,30.88099,30.88099
13169,F3Rb1Ti1,0.2652,221,4.907176,4.907176,4.907176,90.0,90.0,90.0
13170,Ba1F3Ir1,0.6219,221,5.094654,5.094654,5.094654,90.0,90.0,90.0
13171,As1In1K2,0.38880000000000003,225,5.688214,5.688214,5.688214,60.0,60.0,60.0
13172,Ge8N12Sr22,0.1754,125,7.321722,7.321722,18.82939,90.0,90.0,90.0
13173,Ge16Mg16O48,2.8305,61,5.42609,9.064111,19.07784,90.0,90.0,90.0
13174,K8Re12S24,1.4182000000000001,15,9.716326,9.716547,12.03916,88.81893,88.81877,61.11412
13175,Al3O12P3,5.6393,152,5.025423,5.025469,11.12626,90.00082,90.00081,120.0012
13176,I2O8Tl2,2.0324,88,7.794065,7.794065,7.794065,134.3826,134.3826,66.49099
13177,Na1Nb1O3,1.8362,221,3.985668,3.985668,3.985643,90.0,90.0,90.12974
13178,In2K2Te4,1.0303,140,7.234281,7.234281,7.234281,105.2415,105.2415,118.3088
13179,Ga12Na8Sb12,0.2071,62,4.351882,7.349767,27.23016,90.0,90.0,90.0
13180,C2Na4O6,3.8476,12,5.207244,5.207244,6.146053,80.07704,80.07704,61.25039
13181,Br2F2Pb2,2.5831,129,4.210622,4.210622,7.910595,90.0,90.0,90.0
13182,Ag2Cu2S2,0.6295000000000001,36,3.914078,3.914078,8.205226,90.0,90.0,117.5644
13183,Na1Nb1O3,1.8331,221,3.988904,3.988904,3.988904,90.0,90.0,90.0
13184,Mo2O8Sr2,3.6698,88,7.225888,7.225888,7.225888,135.3653,135.3653,64.96314
13185,B4H16Li4,6.7717,62,4.368243,6.782712,7.044866,90.0,90.0,90.0
13186,Ba4P16Te8,1.1749,62,6.529853,7.2512360000000005,16.68785,90.0,90.0,90.0
13187,Hg2O8W2,2.2751,15,6.5549669999999995,6.5549669999999995,5.260389,69.97921,69.97921,56.74855
13188,Bi2O8P2,3.9095,11,7.194471,4.818887,4.931439,82.81685,90.0,90.0
13189,Cd4Cl2P6,1.2361,15,6.101003,6.101003,7.653206,82.91684,82.91684,96.81032
13190,Ga2H8Na2,4.6551,63,4.759466,4.759466,7.072132,90.0,90.0,94.67001
13191,Te2Tl1Y1,0.6155,166,8.577204,8.577204,8.577204,30.07271,30.07271,30.07271
13192,Cl18K6Mo4,1.172,176,7.408682,7.408403,16.41396,90.0,90.0,119.9969
13193,As4Si2Zn2,1.1355,122,6.805955,6.805955,6.805955,130.9191,130.9191,71.9416
13194,K4Te4Zn2,2.2178,72,8.709227,8.709227,8.709227,132.7241,130.0365,71.23154
13195,Mg1O3Zr1,0.3901,221,3.748151,3.748151,3.748151,90.0,90.0,90.0
13196,Li2Nb2S4,0.7236,194,3.382107,3.382131,12.95037,90.0,90.0,119.9998
13197,Fe4O16P4,2.0301,62,4.88655,5.9012139999999995,9.966747,90.0,90.0,90.0
13198,N4O4S8,2.2865,2,4.520808,8.177866,11.39678,64.96881,77.92962,76.33134
13199,Cu4La8S16,1.6952,14,7.615954,7.8135580000000004,10.97518,75.39302,90.0,90.0
13200,F12Pb2Zr2,5.0089,67,6.824374,6.824374,5.468157,90.0,90.0,111.5371
13201,P4Se16Tl12,1.5084,62,8.327205,12.7697,10.68575,90.0,90.0,90.0
13202,K4O10S4,3.1936,11,6.232212,7.198284,7.6852,77.71612,90.0,90.0
13203,Br2F2Pb2,2.5877,129,4.203682,4.203682,7.817737,90.0,90.0,90.0
13204,Cl4H52O24,5.2321,57,6.640922,6.540078,17.60686,90.0,90.0,90.0
13205,Nd8S24Si6,1.9183,161,11.45288,11.45288,11.45288,114.768,114.768,114.768
13206,Hf1Ni1Sn1,0.10790000000000001,216,4.310964,4.310964,4.310964,60.0,60.0,60.0
13207,Ag16S32Sn12,0.4272,213,11.01978,11.01978,11.01978,90.0,90.0,90.0
13208,Bi4F28Kr4,2.4495,14,10.8721,5.619916,11.59109,84.70269,90.0,90.0
13209,Co4O14P4,3.7631,14,10.08667,5.378883,4.533846,82.41255,90.0,90.0
13210,Ge6O24Zn12,2.4831,148,8.785897,8.785897,8.785897,107.8165,107.8165,107.8165
13211,Br2N2Zr2,1.4569,166,10.40167,10.40167,10.40167,20.39813,20.39813,20.39813
13212,Ag2Al2O4,1.6901000000000002,194,2.91553,2.91553,12.41718,90.0,90.0,120.0
13213,Ca1F6Sn1,4.8292,225,6.079912,6.079912,6.079912,60.0,60.0,60.0
13214,Cl4K4O16,5.5292,62,5.795498,7.419517,9.038553,90.0,90.0,90.0
13215,Cr4O24S6,2.6452,148,8.858616,8.858616,8.858616,55.62111,55.62111,55.62111
13216,F12Hf2K4,6.8098,128,6.334625,6.334625,8.996676,90.0,90.0,90.0
13217,O8Rb2Re2,4.1873000000000005,88,8.014179,8.014179,8.014179,136.0832,136.0832,63.85171
13218,Hg2O8W2,2.2672,15,6.556607,6.556607,5.251131,69.97852,69.97852,57.0067
13219,I8O24Pb4,2.702,60,5.635497,6.171301,17.0865,90.0,90.0,90.0
13220,O8P2Tm2,2.3553,141,5.69971,5.69971,5.69971,106.073,106.073,116.505
13221,Cu11O26V6,0.9496,2,8.295761,8.159708,8.333493,106.9627,106.2472,91.6486
13222,Cl4F2Tb2,4.8604,15,5.34708,5.34708,6.850579,73.66166,73.66166,66.40632
13223,Cl8K2Tl2,2.3014,88,9.368683,9.368683,9.368683,135.5829,135.5829,64.6258
13224,Cr8Ho16S32,0.501,29,7.544104,12.58803,12.65803,90.0,90.0,90.0
13225,Pr2S12Y6,1.0175,11,4.005138,11.37475,11.12375,71.20156,90.0,90.0
13226,Er4Mn8O20,1.07,55,5.779364,7.301528,8.531217999999999,90.0,90.0,90.0
13227,Cr3Na1O8,1.7443,12,5.142185,5.142185,6.989441,89.41692,89.41692,65.48721
13228,F18Ni6Rb6,4.0541,194,5.938552,5.938552,14.50798,90.0,90.0,120.0039
13229,Cl12Eu8O2,2.7766,186,9.552017,9.550867,7.260512,90.0,90.0,120.004
13230,Na12P8W2,1.3528,186,9.145156,9.144422,7.156158,90.0,90.0,120.0027
13231,Ag8Hg4O8,0.7844,96,6.446917,6.446917,8.450762,90.0,90.0,90.0
13232,O28P8Zr4,4.4733,205,8.549194,8.549194,8.549194,90.0,90.0,90.0
13233,Au1F6Li1,2.104,148,5.5028369999999995,5.5028369999999995,5.5028369999999995,56.21027,56.21027,56.21027
13234,Fe4O24P8,3.5018000000000002,15,7.398509,7.398509,10.06727,66.82163,66.82163,70.05369
13235,F28Gd4Sn4,3.9394,14,5.127448,9.66322,11.42825,83.60228,90.0,90.0
13236,Ba1O3Ti1,2.1324,221,4.06028,4.06028,4.06028,90.0,90.0,90.0
13237,Fe2O6Ti2,1.9913,148,5.5836,5.5836,5.5836,55.59462,55.59462,55.59462