,full_formula,DebyeTemp,spacegroup.number,structure.lattice.a,structure.lattice.b,structure.lattice.c,structure.lattice.alpha,structure.lattice.beta,structure.lattice.gamma
4768,Dy4O14Ru4,477.88,227,7.256112,7.256112,7.256112,60.0,60.0,60.0
4769,H2Pd1Zr2,316.465,139,6.758397,6.758397,6.758397,152.6673,152.6673,39.03966
4770,Ce1Os4P12,506.967,204,7.028467,7.028467,7.028467,109.4712,109.4712,109.4712
4771,Al1C1Dy3,318.859,221,4.885644,4.885644,4.885644,90.0,90.0,90.0
4772,B4Co4W4,567.93,62,3.241814,5.726176,6.600872,90.0,90.0,90.0
4773,Bi4K12Se12,136.079,198,9.929295,9.929295,9.929295,90.0,90.0,90.0
4774,Al1Mn1Ni2,423.826,225,4.152749,4.152749,4.152749,60.0,60.0,60.0
4775,Er6Os8Si26,415.298,223,8.775379,8.775379,8.775379,90.0,90.0,90.0
4776,Pb26Rh8Sr6,156.583,223,10.26677,10.26677,10.26677,90.0,90.0,90.0
4777,B8Os4Tb4,452.997,62,5.332752,5.922433,6.390614,90.0,90.0,90.0
4778,Ga4Li4O8,499.645,33,5.062533,5.4514,6.4382909999999995,90.0,90.0,90.0
4779,Li3Si3Y3,452.432,189,7.032675,7.032675,4.222932,90.0,90.0,120.0006
4780,Al36Mg6V4,560.612,227,10.32793,10.32793,10.32793,60.0,60.0,60.0
4781,Al1Hf1Ni2,260.945,225,4.274483,4.274483,4.274483,60.0,60.0,60.0
4782,Ag1F3Zn1,321.017,221,3.979183,3.979183,3.979183,90.0,90.0,90.0
4783,Al2Er2Zn2,319.475,194,4.478042,4.478042,7.003785,90.0,90.0,119.999
4784,Cu6Sb8Tb6,282.804,220,8.318995,8.318995,8.318995,109.4712,109.4712,109.4712
4785,Cu2La1Si2,424.554,139,5.804299,5.804299,5.804299,137.8876,137.8876,61.07523
4786,Cu6Sb8Y6,308.295,220,8.320723,8.320723,8.320723,109.4712,109.4712,109.4712
4787,Gd3In1N1,291.706,221,4.914689,4.914689,4.914689,90.0,90.0,90.0
4788,Er4Fe1Ga12,297.402,229,7.43635,7.43635,7.43635,109.4712,109.4712,109.4712
4789,C1Ga1Y3,401.445,221,4.869508,4.869508,4.869508,90.0,90.0,90.0
4790,Al8Co2La2,444.194,51,4.029519,7.023373,7.708912,90.0,90.0,90.0
4791,K12Sb4Se12,145.604,198,9.966694,9.966694,9.966694,90.0,90.0,90.0
4792,Ca6N6V2,513.714,63,6.746152,6.744085,5.082322,90.0,90.0,101.078
4793,As2Ca1Mg2,373.829,164,4.375909,4.375909,7.145856,89.99871,90.00129,120.0022
4794,Bi1Ni1Y1,273.58,216,4.565772,4.565772,4.565772,60.0,60.0,60.0
4795,Co4Dy4Sn4,267.803,62,4.601796,7.382572,7.274266,90.0,90.0,90.0
4796,Al8Dy1Mn4,551.087,139,6.708214,6.708214,6.708214,97.68826,97.68826,137.0908
4797,Ca2Sn2Zn2,251.216,194,4.642733,4.642733,8.128239,90.0,90.0,119.9984
4798,Ga4S8Sr2,276.93,66,6.080025,6.080025,10.63674,90.0,90.0,120.2126
4799,Ag1Cu4Dy1,167.919,216,5.064349,5.064349,5.064349,60.0,60.0,60.0
4800,Br3Cs1Sn1,138.264,221,5.922506,5.922506,5.922506,90.0,90.0,90.0
4801,In1Li1Sn1,208.904,216,4.820318,4.820318,4.820318,60.0,60.0,60.0
4802,In1Ni2Tb2,237.773,65,7.43332,7.43332,3.629479,90.0,90.0,149.3708
4803,Os2Si2U1,348.61,139,5.670547,5.670547,5.670547,136.3861,136.3861,63.384
4804,O14Sn4Tb4,466.444,227,7.506092,7.506092,7.506092,60.0,60.0,60.0
4805,Cu4Mn1Sn1,335.165,216,5.004894,5.004894,5.004894,60.0,60.0,60.0
4806,Au1Sc1Sn1,233.579,216,4.647429,4.647429,4.647429,60.0,60.0,60.0
4807,Bi4Pd4Se4,180.983,198,6.525583,6.525583,6.525583,90.0,90.0,90.0
4808,O3Sr1Zr1,551.877,221,4.197384,4.197384,4.197384,90.0,90.0,90.0
4809,N8Ni4O24,319.817,205,7.528194,7.528194,7.528194,90.0,90.0,90.0
4810,B6Ir6Mg6,390.455,180,5.273812,5.273812,9.440702,90.0,90.0,120.0
4811,Ge26Ir8Yb6,277.506,223,9.056222,9.056222,9.056222,90.0,90.0,90.0
4812,Pt6Sc6Sn6,277.186,190,7.534321,7.534332,7.430147,90.0,90.0,120.0
4813,Ho4Mg2Se8,198.529,227,8.240091,8.240091,8.240091,60.0,60.0,60.0
4814,Ag2Pb2Tb2,201.345,186,4.848278,4.848129,7.482322,90.0,90.0,120.001
4815,Pt1Sb1Yb1,128.105,216,4.729915,4.729915,4.729915,60.0,60.0,60.0
4816,Ga1Ni2V1,364.867,225,4.090176,4.090176,4.090176,60.0,60.0,60.0
4817,Al1Au2Ti1,172.383,225,4.583342,4.583342,4.583342,60.0,60.0,60.0
4818,Ag1Mn3N1,285.629,221,4.265445,4.265445,4.265445,90.0,90.0,90.0
4819,As7Ho2Ni12,328.869,174,9.291712,9.292089,3.802026,90.0,90.0,120.0006
4820,Hf3Ru3Si3,409.66,189,6.669259,6.669259,3.659517,90.0,90.0,120.0002
4821,N4Ni8W12,437.29,213,6.690342,6.690342,6.690342,90.0,90.0,90.0
4822,Pt1Sn1U1,128.206,216,4.812495,4.812495,4.812495,60.0,60.0,60.0
4823,Dy4Li4O8,429.86,62,3.39155,5.326928,11.23441,90.0,90.0,90.0
4824,Ge1Pt1Ti1,295.096,216,4.251222,4.251222,4.251222,60.0,60.0,60.0
4825,Co1O6Pt3,386.98,65,6.166191,6.166191,3.207164,90.0,90.0,108.9618
4826,N4Nb12Zn12,464.727,227,8.265101,8.265101,8.265101,60.0,60.0,60.0
4827,H6Ru1Sr2,391.324,225,5.36069,5.36069,5.36069,60.0,60.0,60.0
4828,Ge26Ir8Tb6,314.81,223,9.01858,9.01858,9.01858,90.0,90.0,90.0
4829,Ag1Pt5Si1,233.683,123,3.923363,3.923363,7.142779,90.0,90.0,90.0
4830,Cr4Nb4P4,500.588,62,3.611454,6.405571,7.651154,90.0,90.0,90.0
4831,As6Ru7U4,337.331,229,7.301584,7.301584,7.301584,109.4712,109.4712,109.4712
4832,C2Hf4In2,363.045,194,3.324482,3.324482,14.885440000000001,90.0,90.0,119.998
4833,As8Ba4Ge8,245.945,105,7.928153,7.928153,8.799908,90.0,90.0,90.0
4834,Ho3In3Ir3,200.218,189,7.44343,7.44343,3.939596,90.0,90.0,120.0011
4835,Ag1P1Pt5,211.092,123,3.920467,3.920467,7.117461,90.0,90.0,90.0
4836,Co2Sn1Zr1,336.285,225,4.56969,4.56969,4.56969,60.0,60.0,60.0
4837,Mg3Pd3Y3,204.19,189,7.46873,7.468282,4.050791,90.0,90.0,120.002
4838,As2Ba1Zn2,239.555,139,7.406251,7.406251,7.406251,147.5788,147.5788,46.50751
4839,Ge3Pd3Ti3,359.198,189,6.707927,6.707818,3.729775,90.0,90.0,120.0005
4840,Ba2Pb2Zn2,181.374,194,4.869911,4.8698239999999995,9.837761,90.0,90.0,120.0006
4841,K2P2Zn2,331.788,194,4.087213,4.087213,10.24213,90.0,90.0,120.0051
4842,Cd2Er4S8,232.539,227,7.93187,7.93187,7.93187,60.0,60.0,60.0
4843,Cr4S8Zn2,405.106,227,7.136803,7.136778,7.136675,59.99979,59.99996,59.99899
4844,Al1Hf1Pd2,144.256,225,4.527088,4.527088,4.527088,60.0,60.0,60.0
4845,Co8Ge26Yb6,291.878,223,8.761941,8.761941,8.761941,90.0,90.0,90.0
4846,C4Si2Ti6,782.85,194,3.122141,3.122141,17.90123,90.0,90.0,120.0001
4847,C2Ca2O6,400.858,40,4.582374,4.002508,8.538764,90.0,90.0,124.9213
4848,Al9Er3Ni6,431.803,191,8.945868,8.945868,4.054965,90.0,90.0,120.0029
4849,Al1Co2Hf1,372.696,225,4.399996,4.399996,4.399996,60.0,60.0,60.0
4850,Er16In4Rh4,212.929,216,9.548737,9.548737,9.548737,60.0,60.0,60.0
4851,B2C2Mo4,688.589,63,8.940147,8.940147,3.082572,90.0,90.0,159.8433
4852,Ag2As2Ba2,228.055,194,4.698406,4.698306,8.979903,90.0,90.0,120.0007
4853,Er4P4Pd4,322.413,62,3.982741,6.868762,7.740588,90.0,90.0,90.0
4854,Er4Pt8Si4,250.891,62,5.511776,6.916799,7.248195,90.0,90.0,90.0
4855,Er2Ga4Pd2,278.501,63,5.484977,5.484977,6.6269089999999995,90.0,90.0,132.6153
4856,Al1Li1Si1,667.97,216,4.199872,4.199872,4.199872,60.0,60.0,60.0
4857,Ni2O12Sb4,556.008,136,4.716307,4.716307,9.365221,90.0,90.0,90.0
4858,Er2Tl2Zn2,223.015,194,4.697305,4.697305,7.130718,90.0,90.0,120.0006
4859,O1Sn1Yb3,250.877,221,4.864516,4.864516,4.864516,90.0,90.0,90.0
4860,As2Dy2O8,412.877,141,5.974233,5.974233,5.974233,106.4459,106.4459,115.7077
4861,P1Pt5Tl1,217.502,123,3.983269,3.983269,7.166937,90.0,90.0,90.0
4862,Ge6Ni2Y2,384.545,65,11.02165,11.02165,4.082912,90.0,90.0,158.5875
4863,Cu4In1Y1,321.203,216,5.132981,5.132981,5.132981,60.0,60.0,60.0
4864,C1Lu1Rh3,358.573,221,4.135551,4.135551,4.135551,90.0,90.0,90.0
4865,Ho1Rh2Si2,416.353,139,5.721928,5.721928,5.721928,138.6776,138.6776,59.86675
4866,Hf6Ni16Si7,435.617,225,8.02124,8.02124,8.02124,60.0,60.0,60.0
4867,Al2C2Zr4,527.421,194,3.330842,3.330842,14.60929,90.0,90.0,119.9996
4868,Cd2Dy4S8,231.61,227,7.982423,7.982423,7.982423,60.0,60.0,60.0
4869,Cu2Te2Tl1,145.272,139,8.312851,8.312851,8.312851,152.0359,152.0359,39.96086
4870,Cd2Ho4Se8,182.481,227,8.311055,8.311055,8.311055,60.0,60.0,60.0
4871,Bi4Pt4Te4,184.262,198,6.737666,6.737666,6.737666,90.0,90.0,90.0
4872,Al4Co2Y2,383.068,63,5.341222,5.341222,7.017473,90.0,90.0,135.8409
4873,As4Ge2Zn2,307.687,122,6.961644,6.961644,6.961644,131.3626,131.3626,71.23763
4874,Ni3P3Pd3,281.352,189,5.994165,5.994165,3.612445,90.0,90.0,119.9985
4875,Co2Sc1Sn1,331.375,225,4.62511,4.62511,4.62511,60.0,60.0,60.0
4876,Co2P2Zr8,275.235,124,6.368032,6.368032,5.494242,90.0,90.0,90.0
4877,Dy4Ge4Ir4,270.745,62,4.318891,6.888485,7.536813,89.99823,90.00001,90.00002
4878,Li2N4P2,910.391,122,4.873665,4.873665,4.873665,124.0252,124.0252,83.15892
4879,As2Ca1Cd2,262.566,164,4.444747,4.444747,7.20554,89.99832,90.00168,119.9986
4880,Cl6Cs2Ti1,117.117,225,7.530585,7.530585,7.530585,60.0,60.0,60.0
4881,Au6Er6Sb8,215.713,220,8.550892,8.550892,8.550892,109.4712,109.4712,109.4712
4882,As4Fe4Nb4,349.755,62,3.6141389999999998,6.451487,8.127951,90.0,90.0,90.0
4883,Ge6Ru4Tb6,286.798,63,5.8495729999999995,5.8495729999999995,14.01999,90.0,90.0,137.1728
4884,Ge4Mg2Tb4,322.17,127,7.287617,7.287617,4.262948,90.0,90.0,90.0
4885,Pd2Sb2Tb2,218.792,194,4.575122,4.575122,7.6072109999999995,90.0,90.0,119.9979
4886,Ga6Pt6Zr6,314.344,190,7.187602,7.187602,7.123554,90.0,90.0,119.9997
4887,As4Cu2Er2,314.693,129,3.885013,3.885013,9.839625999999999,90.0,90.0,90.0
4888,F6K2Mn1,217.996,225,5.939984,5.939984,5.939984,60.0,60.0,60.0
4889,C2Nb4S2,506.604,194,3.3219,3.32187,11.68824,90.0,90.0,120.0003
4890,La2O8P2,387.355,141,6.087565,6.087565,6.087565,105.9699,105.9699,116.7266
4891,Pd2Sn1Y1,199.929,225,4.806678,4.806678,4.806678,60.0,60.0,60.0
4892,Al16Pd7Ti6,471.291,225,8.657121,8.657121,8.657121,60.0,60.0,60.0
4893,Ca2In4Pd2,224.022,63,5.6680209999999995,5.6680209999999995,7.949458,90.0,90.0,133.2253
4894,Ir7Sc4Si6,420.562,229,6.988685,6.988685,6.988685,109.4712,109.4712,109.4712
4895,F3Mg1Rb1,438.137,221,4.129867,4.129867,4.129867,90.0,90.0,90.0
4896,Bi1Ga1O3,455.123,221,3.886215,3.886215,3.886215,90.0,90.0,90.0
4897,In4Ir2Sr2,208.282,63,5.921059,5.921059,8.125322,90.0,90.0,137.2099
4898,Ba2In8Ir2,212.102,51,4.404684,8.038173,8.738201,90.0,90.0,90.0
4899,Ag2As2Sr2,252.18,194,4.602265,4.602265,8.327677,90.0,90.0,119.9973
4900,Cu2Si2Tb2,357.027,194,4.172679,4.172715,7.507782,90.0,90.0,120.0003
4901,Au4Mg4Yb4,162.073,62,4.434176,7.456321,8.767395,90.0,90.0,90.0
4902,O8Pd6Sr2,393.619,223,5.922441,5.922441,5.922441,90.0,90.0,90.0
4903,Ga1Mn1Ni2,423.116,225,4.165931,4.165931,4.165931,60.0,60.0,60.0
4904,Ba1Ge12Pt4,183.638,204,7.5941849999999995,7.5941849999999995,7.5941849999999995,109.4712,109.4712,109.4712
4905,Au2Br6Cs2,102.127,139,8.078339,8.078339,8.078339,121.6684,121.6684,87.13374
4906,As1Pd5Tl1,257.935,123,4.052687,4.052687,7.155369,90.0,90.0,90.0
4907,Pt2Si2Th1,282.183,139,5.853374,5.853374,5.853374,136.9947,136.9947,62.44621
4908,S4Tl3V1,137.107,217,6.655124,6.655124,6.655124,109.4712,109.4712,109.4712
4909,Ir1La1Si3,369.769,107,5.796207,5.796207,5.796207,136.4257,136.4257,63.32291
4910,Ir4La2Si4,313.243,129,4.214996,4.214996,9.958112,90.0,90.0,90.0
4911,Ca2O6Si2,909.858,127,5.087432,5.087432,3.628349,90.0,90.0,90.0
4912,Ba2O4Zr1,389.332,139,7.437455,7.437455,7.437455,146.8236,146.8236,47.62497
4913,Eu1O3Ti1,565.181,221,3.969209,3.969209,3.969209,90.0,90.0,90.0
4914,P2Sb2Zr4,377.321,194,3.841417,3.841386,13.42465,90.0,90.0,120.0003
4915,Bi1O2Y2,264.118,139,7.341889,7.341889,7.341889,149.1959,149.1959,44.12307
4916,Al16Hf6Rh7,353.347,225,8.672859,8.672859,8.672859,60.0,60.0,60.0
4917,Ca1O3Si1,935.528,221,3.607002,3.607002,3.607002,90.0,90.0,90.0
4918,Al1Au2Sc1,156.13,225,4.685929,4.685929,4.685929,60.0,60.0,60.0
4919,In2Pd4Th4,180.406,127,7.981794,7.981794,3.988308,90.0,90.0,90.0
4920,Dy1Ni2P2,445.474,139,5.400226,5.400226,5.400226,138.1319,138.1319,60.70107
4921,Cl6Rb2Ti1,139.322,225,7.2682,7.2682,7.2682,60.0,60.0,60.0
4922,Ho4Rh4Zn4,228.361,62,3.988991,6.872839,8.042342,90.0,90.0,90.0
4923,Cl6Pb1Rb2,110.543,225,7.468721,7.468721,7.468721,60.0,60.0,60.0
4924,Ag2Sn2Sr1,179.402,139,6.864104,6.864104,6.864104,139.5256,139.5256,58.57429
4925,Cl3Cs1Pb1,150.469,221,5.734964,5.734964,5.734964,90.0,90.0,90.0
4926,Fe2Ge1Ti1,591.296,225,4.113835,4.113835,4.113835,60.0,60.0,60.0
4927,Dy1Ir1Si3,337.887,107,5.705833,5.705833,5.705833,137.0527,137.0527,62.35695
4928,B6C2Nb6,754.429,63,14.51799,14.51799,3.143799,90.0,90.0,167.0062
4929,Cd1Hg2Ti1,162.644,123,4.514228,4.514228,4.253161,90.0,90.0,90.0
4930,Ca2In4O8,364.301,141,6.6175429999999995,6.6175429999999995,6.6175429999999995,120.2037,120.2037,89.64763
4931,Cu4Er1Pd1,245.652,216,4.980692,4.980692,4.980692,60.0,60.0,60.0
4932,Ba4F12Pd2,245.411,64,9.273838,9.273838,6.271261,90.0,90.0,140.4551
4933,K4Na4S4,307.3,62,4.657323,7.817009,8.414097,90.0,90.0,90.0
4934,Hf4Ni4Sn2,298.022,127,7.058491,7.058491,3.40673,90.0,90.0,90.0
4935,Co2Nb1Sn1,340.058,225,4.459864,4.459864,4.459864,60.0,60.0,60.0
4936,B8Hf2Ir6,389.642,176,7.615738,7.615635,3.472741,90.0,90.0,119.9971
4937,Ga4Li4S8,331.571,33,6.288023,6.577826,7.91194,90.0,90.0,90.0
4938,Al16Os7Zr6,370.869,225,8.744565,8.744565,8.744565,60.0,60.0,60.0
4939,La4O12Y4,420.875,33,5.96387,6.162044,8.619783,90.0,90.0,90.0
4940,As2Ru2Sr1,300.638,139,6.286175,6.286175,6.286175,140.7092,140.7092,56.77803
4941,La8Ru8Sn24,222.707,223,9.960536,9.960536,9.960536,90.0,90.0,90.0
4942,Hg2Sn2Sr2,181.001,186,5.032513,5.032443,8.233128,90.0,90.0,120.0005
4943,Pt1Sb1Sc1,275.722,216,4.536988,4.536988,4.536988,60.0,60.0,60.0
4944,Rh3Sn3Zr3,289.857,189,7.428629,7.428629,3.661578,90.0,90.0,119.9999
4945,Pt2Sc1Sn1,183.547,225,4.702317,4.702317,4.702317,60.0,60.0,60.0
4946,Cu1Rh2Sn1,309.843,225,4.40651,4.40651,4.40651,60.0,60.0,60.0
4947,Li2O8Ti4,665.338,227,6.068401,6.068401,6.068401,60.0,60.0,60.0
4948,In2Ir1Li1,251.551,225,4.587099,4.587099,4.587099,60.0,60.0,60.0
4949,As3Na3Sr3,286.21,189,7.874173,7.87413,4.610391,90.0,90.0,120.0002
4950,N4Os8Zr16,359.942,227,8.806339,8.806339,8.806339,60.0,60.0,60.0
4951,Cu2Ga1Sc1,281.753,225,4.420333,4.420333,4.420333,60.0,60.0,60.0
4952,Pd8Si4Y4,306.742,62,5.533099,6.972466,7.339761,90.0,90.0,90.0
4953,Cd1Li2Pb1,156.164,216,4.942367,4.942367,4.942367,60.0,60.0,60.0
4954,C4Ge2Ti6,683.72,194,3.144955,3.144928,18.06472,90.0,90.0,120.0003
4955,In8Ir1Yb2,198.987,123,4.679659,4.679659,12.30261,90.0,90.0,90.0
4956,Dy3Ge3Li3,321.428,189,7.063163,7.063163,4.247375,90.0,90.0,119.9996
4957,Ba2O12Te4,315.329,63,7.142965,7.142965,7.465395,90.0,90.0,133.3184
4958,Br4K2Pt1,121.071,123,7.480091,7.480091,4.459207,90.0,90.0,90.0
4959,Er1Rh3Si2,428.639,191,5.499246,5.500398,3.629035,90.0,90.0,119.9931
4960,C2Er10Ge6,262.679,193,8.417234,8.417234,6.381943,90.0,90.0,120.0006
4961,Ir4Lu4Si4,320.893,62,4.155366,6.67043,7.377485,90.0,90.0,90.0
4962,Cu4Mn4P4,350.177,62,3.821209,6.494601,7.224476,90.0,90.0,90.0
4963,Ni2Sc2Si6,589.986,65,10.56104,10.56104,3.8383979999999998,90.0,90.0,158.9534
4964,Hg1P1Pd5,234.203,123,3.960548,3.960548,7.089667,90.0,90.0,90.0
4965,Ag4Te4Tl4,119.788,62,4.951736,8.118211,8.662462,90.0,90.0,90.0
4966,Au1Li2Sb1,199.427,216,4.686431,4.686431,4.686431,60.0,60.0,60.0
4967,In2Li1Pd1,228.048,225,4.6829979999999995,4.6829979999999995,4.6829979999999995,60.0,60.0,60.0
4968,As2Ba1Cu2,236.269,139,6.247144,6.247144,6.247144,139.0392,139.0392,59.31513
4969,Cl8Cu2Rb4,167.678,64,8.684533,8.684533,7.306992,90.0,90.0,130.2728
4970,N4V12Zn8,598.239,213,6.599645,6.599645,6.599645,90.0,90.0,90.0
4971,As4Ni2U2,289.265,129,3.994229,3.994229,9.425159,90.0,90.0,90.0
4972,Ag2Bi2Ca2,185.42,186,4.922305,4.922119,7.873554,90.0,90.0,120.0012
4973,Pd2Sr2Tl4,133.554,63,6.011548,6.011548,8.466365,90.0,90.0,136.0239
4974,Al2Li2Te4,195.852,122,7.50868,7.50868,7.50868,129.4513,129.4513,74.28548
4975,Ag2Li1Sn1,187.583,225,4.770433,4.770433,4.770433,60.0,60.0,60.0
4976,Ga1Li2Pt1,258.111,216,4.274775,4.274775,4.274775,60.0,60.0,60.0
4977,Ag3Ca3P3,345.672,189,7.113127,7.113081,4.194431,90.0,90.0,120.0002
4978,As4Er2Ni8,346.041,136,7.194723,7.194723,3.750301,90.0,90.0,90.0
4979,P4Rh4Se4,454.368,198,5.860257,5.860257,5.860257,90.0,90.0,90.0
4980,La4O14Zr4,498.354,227,7.745693,7.745693,7.745693,60.0,60.0,60.0
4981,Ge6Ho4Rh7,344.871,229,7.242971,7.242971,7.242971,109.4712,109.4712,109.4712
4982,Ca1F3K1,393.876,221,4.482625,4.482625,4.482625,90.0,90.0,90.0
4983,Au2Ca4N2,268.743,63,9.30276,9.30276,4.966228,90.0,90.0,157.9227
4984,N2Se1Th2,288.993,164,4.173978,4.173764,7.371398,89.9997,90.0,120.0017
4985,B4Fe4W4,493.674,62,3.146367,5.8871839999999995,7.29395,90.0,90.0,90.0
4986,Bi4Ir4O14,388.125,227,7.37389,7.37389,7.37389,60.0,60.0,60.0
4987,Al1N1Tb3,336.828,221,4.80484,4.80484,4.80484,90.0,90.0,90.0
4988,Ba4Ge4Pt4,178.898,198,6.831668,6.831668,6.831668,90.0,90.0,90.0
4989,Cu6Ho6Sb8,277.638,220,8.292424,8.292424,8.292424,109.4712,109.4712,109.4712
4990,Cr4Cu2S8,348.464,227,7.072707,7.072707,7.072707,60.0,60.0,60.0
4991,Au4Cd4Yb4,142.973,62,4.410186,7.453346,8.931415,90.0,90.0,90.0
4992,B8C8Sc4,1045.49,55,3.5204750000000002,5.301391,10.22985,90.0,90.0,90.0
4993,Li2P2Sr2,401.077,194,4.389769,4.389692,8.061941,90.0,90.0,120.0006
4994,Ga9Ru3Y3,353.199,221,6.416702,6.416702,6.416702,90.0,90.0,90.0
4995,B4Hf6Ir10,351.742,127,9.25202,9.25202,3.358287,90.0,90.0,90.0
4996,Fe2Rh4S8,382.389,227,7.103125,7.103125,7.103125,60.0,60.0,60.0
4997,Ni4P4Th2,361.101,129,4.128792,4.128792,9.198005,90.0,90.0,90.0
4998,Ga1Ni2Ta1,294.378,225,4.217937,4.217937,4.217937,60.0,60.0,60.0
4999,Ag10S8Sb2,163.348,36,7.489336,7.489336,8.771353,90.0,90.0,115.9618
5000,Ge3Ir1Sr1,271.255,107,5.996103,5.996103,5.996103,135.973,135.973,64.02214
5001,Cd4Co4Dy16,191.859,216,9.469087,9.469087,9.469087,60.0,60.0,60.0
5002,O8Rh4Zn2,448.632,227,6.063687,6.063687,6.063687,60.0,60.0,60.0
5003,Cd4O8Si2,419.447,227,6.21787,6.21787,6.21787,60.0,60.0,60.0
5004,Mo12N4Ni8,526.499,213,6.669307,6.669307,6.669307,90.0,90.0,90.0
5005,B14Re2Y6,658.909,63,8.102802,8.102802,9.365946,90.0,90.0,154.6556
5006,O14Ru4Y4,541.614,227,7.267834,7.267834,7.267834,60.0,60.0,60.0
5007,As2K2Mg2,281.074,129,4.575647,4.575647,7.864741,90.0,90.0,90.0
5008,Ca4Mg4Si4,491.761,62,4.428602,7.469898,8.31126,90.0,90.0,90.0
5009,Cd1Pt2Zn1,254.145,123,2.93468,2.93468,7.227563,90.0,90.0,90.0
5010,Ca4In4Rh4,223.382,62,4.329722,7.2798549999999995,8.344835,90.0,90.0,90.0
5011,Ge7Hf6Ni16,366.734,225,8.163548,8.163548,8.163548,60.0,60.0,60.0
5012,Al1Bi1O3,538.456,221,3.793297,3.793297,3.793297,90.0,90.0,90.0
5013,La2Pd2Sb2,229.937,194,4.656783,4.656783,8.256614,90.0,90.0,119.9996
5014,H3Ni1Yb1,391.251,221,3.515024,3.515024,3.515024,90.0,90.0,90.0
5015,Cr2Cu2O4,461.636,194,3.045576,3.045576,11.44713,90.0,90.0,120.0042
5016,C1Dy3In1,300.115,221,4.924958,4.924958,4.924958,90.0,90.0,90.0
5017,As1Ca3Cl3,336.682,221,5.784127,5.784127,5.784127,90.0,90.0,90.0
5018,Au2Dy2Ge2,233.783,186,4.478667,4.478657,7.307761,90.0,90.0,120.0001
5019,O4S2Sc4,578.571,194,3.59641,3.596274,12.76667,90.0,90.0,120.0012
5020,Al8Ba4Si8,365.033,62,4.266598,10.13269,10.93937,90.0,90.0,90.0
5021,Ni2P2Ta8,353.022,124,6.197285,6.197285,4.987176,90.0,90.0,90.0
5022,Ge2Sn2Tb2,254.557,63,8.485862,8.485862,4.117085,90.0,90.0,150.4933
5023,Ir4Li8Mg4,265.551,215,6.162552,6.162552,6.162552,90.0,90.0,90.0
5024,Li1Pb1Pd2,152.773,225,4.578825,4.578825,4.578825,60.0,60.0,60.0
5025,P2Pd2Sr1,338.34,139,5.741162,5.741162,5.741162,136.3568,136.3568,63.42922
5026,Fe1La1O3,533.17,221,3.976984,3.976984,3.976984,90.0,90.0,90.0
5027,O3Ru1Sr1,491.687,221,4.002679,4.002679,4.002679,90.0,90.0,90.0
5028,Fe2In2O6,478.931,194,3.386677,3.386622,12.312570000000001,90.0,90.0,120.0005
5029,Ag4O4Rb4,165.715,119,7.840414,7.840414,7.840414,98.07713,98.07713,135.971
5030,Nb10P2Si6,445.531,193,7.749095,7.749095,5.534307,90.0,90.0,120.0
5031,B1Ni6Si2,480.461,189,6.064835,6.06488,2.8560879999999997,90.0,90.0,120.0002
5032,La3Mg3Tl3,218.615,189,7.906184,7.905952,4.84893,90.0,90.0,120.001
5033,Ge4Ho4Mg2,322.722,127,7.236931,7.236931,4.226551,90.0,90.0,90.0
5034,Co4S4Sb4,427.443,198,5.856856,5.856856,5.856856,90.0,90.0,90.0
5035,Al2Au2O4,392.156,194,2.930395,2.9303809999999997,12.35072,90.0,90.0,120.0002
5036,Cu2F6Rb2,302.655,140,5.89983,5.89983,5.89983,117.5961,117.5961,94.21666
5037,Rh4Si4Y4,371.476,62,4.240715,6.897741,7.417128,90.0,90.0,90.0
5038,C1Rh3Sc1,428.902,221,4.10163,4.10163,4.10163,90.0,90.0,90.0
5039,Ba2Ga4Se8,185.459,66,6.545362,6.545362,11.58447,90.0,90.0,121.9562
5040,Ga12Pd1Y4,348.916,229,7.489058,7.489058,7.489058,109.4712,109.4712,109.4712
5041,Au8Cl24Cs8,161.862,221,10.41183,10.41183,10.41183,90.0,90.0,90.0
5042,Ag1Mg1Sb1,171.561,216,4.656001,4.656001,4.656001,60.0,60.0,60.0