,full_formula,band_gap,spacegroup.number,structure.lattice.a,structure.lattice.b,structure.lattice.c,structure.lattice.alpha,structure.lattice.beta,structure.lattice.gamma
10369,N2Na2Sn2,0.7679,186,3.4116400000000002,3.4116400000000002,10.99796,89.99997,90.00003,119.9997
10370,Ba2O8W2,4.6603,88,7.607673,7.607673,7.607673,135.7962,135.7962,64.29558
10371,Ag2Ga2S4,1.5023,122,6.674743,6.674743,6.674743,128.0836,128.0836,76.48966
10372,Cu2F6K2,1.2876,140,5.784763,5.784763,5.784763,118.3629,118.3629,92.8597
10373,Ba8S16Si4,3.0024,62,6.820778,9.0074,12.3683,90.0,90.0,90.0
10374,C2Mg2O6,5.1336,20,5.162457,5.162457,3.714127,90.0,90.0,111.6118
10375,Bi1Co1O3,0.6847000000000001,99,3.770136,3.770136,4.866904,90.0,90.0,90.0
10376,F3N1P1,0.1771,221,4.005621,4.005621,4.005621,90.0,90.0,90.0
10377,As4Cs4Sn2,0.7152000000000001,72,9.191698,9.191698,9.191698,134.1684,129.007,70.96263
10378,Mo2O8Tl4,3.3138,5,6.340529,6.340529,8.243753,88.72587,88.72587,63.3535
10379,F8Li2Y2,7.8395,88,6.572406,6.572406,6.572406,132.9145,132.9145,68.78851
10380,B4H16Li4,6.9372,62,4.402498,6.717061,7.195693,90.0,90.0,90.0
10381,Hg1In2Se4,0.6679,82,7.251959,7.251959,7.251959,131.2654,131.2654,71.39179
10382,Al2Li10O8,4.7955,59,4.670526,6.360658,6.4866019999999995,90.0,90.0,90.0
10383,Mn4O14Y4,0.8556,227,7.109247,7.109247,7.109247,60.0,60.0,60.0
10384,Ag2In2Te4,0.40850000000000003,122,7.974379,7.974379,7.974379,131.1076,131.1076,71.64219
10385,Al16Ca8O32,4.379,14,8.703172,8.026574,10.3869,84.9503,90.0,90.0
10386,Al6C6Sc2,0.3017,186,3.370107,3.3700390000000002,16.90859,90.0,90.0,120.0007
10387,Au2O4Rb2,1.7621,63,6.650076,6.650076,6.07437,90.0,90.0,136.8012
10388,Al2Cu2Se4,1.2315,122,6.864375,6.864375,6.864375,131.1251,131.1251,71.61445
10389,Cl2Hf2N2,2.2698,166,10.21337,10.21337,10.21337,20.26158,20.26158,20.26158
10390,F3K1Mn1,2.6978,221,4.26643,4.26643,4.26643,90.0,90.0,90.0
10391,C1K4O4,2.3364000000000003,8,5.606345,5.606345,6.371225,63.72651,63.72651,90.08322
10392,Ba8O32W8,3.6311999999999998,14,16.64464,7.689237,7.284905,90.01149,122.9786,90.01297
10393,O3Pb1Ti1,2.181,221,3.9994300000000003,3.9994300000000003,3.9994300000000003,90.0,90.0,90.0
10394,Br1Ca2H3,1.5697,164,3.9053009999999997,3.905245,6.887136,89.99925,90.00003,120.0004
10395,Cr5Se8Tl1,0.1323,12,9.800999000000001,9.800999000000001,9.183904,75.24971,75.24971,21.92732
10396,Cs8N48Zn4,4.0592,29,6.9184470000000005,7.603985,22.36256,90.0,90.0,90.0
10397,In2Se4Tl2,0.6927,140,6.7725159999999995,6.7725159999999995,6.7725159999999995,105.1864,105.1864,118.4296
10398,Cu4N8O24,1.0777,31,5.178862,8.467359,11.30289,90.0,90.0,90.0
10399,F20K2Yb6,0.9676,225,8.050736,8.050736,8.050736,60.0,60.0,60.0
10400,O8Pb2W2,3.3669000000000002,88,7.259684,7.259684,7.259684,134.9986,134.9986,65.53231
10401,O14P8Se2,3.5526,2,7.276185,7.508382,8.735883,94.34094,103.7198,95.0946
10402,Li2Nb2O6,3.4007,161,5.5474879999999995,5.5474879999999995,5.5474879999999995,56.01403,56.01403,56.01403
10403,P56Pb4Zn4,1.2333,62,9.860644,10.77493,13.07409,90.0,90.0,90.0
10404,Al2Nd2O6,3.7319,167,5.353689,5.353689,5.353689,60.45336,60.45336,60.45336
10405,Na4O8Se2,3.3178,70,8.219832,7.104271,6.017685,77.07998,57.39478,45.52524
10406,O16Sb4Ta4,2.4378,52,6.251554,6.487816,10.38701,90.0,90.0,90.0
10407,As4K4O8,3.8356,57,5.4998249999999995,7.441434,7.567052,90.0,90.0,90.0
10408,B16Li8O28,5.6569,110,8.671394,8.671421,8.671377,113.0321,113.0321,102.5631
10409,Ba1O3Ti1,2.1404,221,4.058399,4.058399,4.058399,89.99698,89.99698,89.99698
10410,Ga2Hg1Se4,0.9468000000000001,82,6.892173,6.892173,6.892173,129.7465,129.7465,73.81231
10411,Cl18Cs2Mn8,4.0106,88,9.916096,9.916096,9.916096,106.3585,106.3585,115.8939
10412,F4O2Sn4,2.6749,12,6.23655,6.23655,5.33885,84.81604,84.81604,81.44983
10413,Er1Li1S2,2.0084,166,6.5596309999999995,6.5596309999999995,6.5596309999999995,34.40019,34.40019,34.40019
10414,Ga4O8Zn2,2.8534,227,5.910352,5.910352,5.910352,60.0,60.0,60.0
10415,Ca2O6Si2,3.6467,140,5.113631,5.113631,5.113631,120.4118,120.4118,89.28815
10416,K4Sb4Se8,1.421,2,13.29439,6.6418610000000005,6.636505,76.98857,69.81517,74.9867
10417,Mg8O16Si4,4.6452,62,4.799882,6.049965,10.32309,90.0,90.0,90.0
10418,Cl10Cs2Sn4,3.0656,140,9.76693,9.76693,9.76693,130.0927,130.0927,73.25856
10419,Ag4Rb4Se16,1.1903,19,5.885347,9.137144,13.73912,90.0,90.0,90.0
10420,Cu4Dy4S8,1.8742,19,3.9645539999999997,6.270069,13.50433,90.0,90.0,90.0
10421,Cl12Cs8Pb2,4.2582,167,9.593504,9.593504,9.593504,89.27721,89.27721,89.27721
10422,Na1O3Ta1,2.504,221,3.995278,3.995278,3.995278,90.0,90.0,90.0
10423,C4Ca16N16,1.799,62,3.576374,11.48014,14.00112,90.0,90.0,90.0
10424,I4O2Ta2,1.1087,12,8.664818,8.664818,7.55596,75.97591,75.97591,26.16361
10425,H32P16Si4,3.7732,14,7.387163,10.91565,11.11818,79.41159,90.0,90.0
10426,F12Na4Ni4,3.9563,62,5.429062,5.605518,7.789551,90.0,90.0,90.0
10427,Cd1W2Zr1,0.1824,216,4.701734,4.701734,4.701734,60.0,60.0,60.0
10428,O24Pb8Zr8,2.7905,55,5.987398,8.31854,11.94687,90.0,90.0,90.0
10429,Co2Ti1W1,0.0358,216,4.172249,4.172249,4.172249,60.0,60.0,60.0
10430,Be4K8O8,1.1387,2,8.432243,10.22388,5.951745,96.30877,94.58078,88.86994
10431,Ag2Co2O4,0.9406,194,3.048814,3.048814,12.49325,90.0,90.0,119.9851
10432,F4H28N8,4.8753,29,5.74231,7.462718,8.152987,90.0,90.0,90.0
10433,Ba1F6Ge1,5.5516,166,4.947532,4.947532,4.947532,98.22567,98.22567,98.22567
10434,Cs4O16Re4,4.3307,62,5.934668,6.148623,14.72615,90.0,90.0,90.0
10435,Ce3O12P3,4.5932,181,7.243502,7.243819,6.490677,90.0,90.0,120.0095
10436,I14Ta6Te2,0.6922,186,7.705613,7.705613,14.97418,90.0,90.0,120.0096
10437,Cu4Ho4S8,1.883,19,3.95592,6.262086,13.42212,90.0,90.0,90.0
10438,Na4O8S2,5.0095,63,5.334182,5.334182,7.027909,90.0,90.0,115.5835
10439,Bi4Mn8O20,0.2997,55,5.889461,7.697637,8.647644,90.0,90.0,90.0
10440,Bi1Se2Tl1,0.2364,166,8.04799,8.04799,8.04799,31.02147,31.02147,31.02147
10441,Cs4I28Mo12,2.2272,163,11.05667,11.05667,17.17489,90.00679,90.00679,119.9904
10442,Al1Ni1V1,0.09720000000000001,216,3.953537,3.953537,3.953537,60.0,60.0,60.0
10443,Ca4Mn8O16,1.0983,57,3.199372,9.834597,10.18855,90.0,90.0,90.0
10444,F25K1Th6,6.87,166,10.14216,10.14216,10.14216,50.54532,50.54532,50.54532
10445,Mo6O16Zn4,2.0169,186,5.823467,5.823504,9.885535,90.0,90.0,119.9984
10446,Al9Cl36Dy3,4.2589,151,10.8261,10.82634,16.04761,90.01363,90.01248,120.0081
10447,Ca2Mo2O8,3.3423,88,6.88938,6.88938,6.88938,134.7501,134.7501,65.91871
10448,Cl4Dy4S4,2.762,14,6.692188,6.676168,6.811608,78.98706,90.0,90.0
10449,Ce4O16P4,1.9702000000000002,2,7.8093509999999995,7.304255,7.595419,68.28603,88.98269,93.35269
10450,Ce4O12Sr4,2.9331,62,6.072225,6.235581,8.70199,90.0,90.0,90.0
10451,Dy1Rb1S2,2.3096,166,8.018117,8.018117,8.018117,29.4489,29.4489,29.4489
10452,Ni4O8Si2,2.9465,227,5.74027,5.74027,5.74027,60.0,60.0,60.0
10453,Cd4O12V4,1.4171,62,3.63015,5.313487,14.56129,90.0,90.0,90.0
10454,B4Cd6O12,1.6179999999999999,58,4.840302,6.072309,9.154161,90.0,90.0,90.0
10455,O16Si4Zn8,3.1955,14,8.673352,5.037268,9.628081,65.15592,90.0,90.0
10456,Be4Cs4F12,6.6457,62,4.895317,6.134965,12.96207,90.0,90.0,90.0
10457,Dy1Pt1Sb1,0.22690000000000002,216,4.657862,4.657862,4.657862,60.0,60.0,60.0
10458,Ce4Cu4S8,1.3563,14,7.296124,6.618301,6.90338,81.69631,90.0,90.0
10459,Cl4Li4O16,5.7382,62,4.936327,6.997158,8.782936,90.0,90.0,90.0
10460,Ag4Nb8O22,2.8645,146,12.99026,12.99026,12.99026,27.96756,27.96756,27.96756
10461,C2K4O6,3.2738,194,5.776741,5.776741,7.171347,90.0,90.0,120.0004
10462,O16Sn4Sr8,2.6471,56,5.878173,5.8586849999999995,12.53983,90.0,90.0,90.0
10463,O6Pd2Se2,1.6023,12,5.102538,5.102538,7.307575,69.46224,69.46224,89.0555
10464,Na1Nb1O3,1.8364,221,3.985208,3.985208,3.986333,90.0,90.0,89.86635
10465,Bi4Ga8O18,2.9109,55,5.975875,8.011735,8.415333,90.0,90.0,90.0
10466,Hf4O12Sr4,4.1653,62,5.831427,5.800512,8.215732,90.0,90.0,90.0
10467,Cd1K2Se1,1.3426,225,5.722895,5.722895,5.722895,60.0,60.0,60.0
10468,H8Li4N4,3.1181,82,6.370965,6.370965,6.370965,133.3532,133.3532,68.10009
10469,Li16O32W8,4.0541,141,9.589388,9.589388,9.589388,101.4311,101.4311,127.1298
10470,Nd4O14Zr4,3.3462,227,7.651512,7.651512,7.651512,60.0,60.0,60.0
10471,Mn12O42Sb12,0.4012,152,7.314196,7.314187,17.61811,90.00001,90.00002,120.0004
10472,F3Hg1Na1,0.4541,221,4.568933,4.568933,4.568933,90.0,90.0,90.0
10473,I10In2Sr4,2.7727,140,10.04557,10.04557,10.04557,125.5445,125.5445,80.63816
10474,Cs4S24Sb4,2.0816,14,15.89738,6.338673,12.89955,74.79015,90.0,90.0
10475,Mg4O8Si2,4.7577,227,5.7635819999999995,5.7635819999999995,5.7635819999999995,60.0,60.0,60.0
10476,Cr4In4O12,1.4569,62,5.231421,5.434521,7.721725,90.0,90.0,90.0
10477,Ni1Sn1Th1,0.1326,216,4.717102,4.717102,4.717102,60.0,60.0,60.0
10478,C2K2Pt1,1.2978,164,5.189471,5.18947,5.236793,90.00035,89.99967,120.0002
10479,Li8O10Te2,2.7171000000000003,2,5.253315,7.873026,5.185208,101.9829,101.8643,107.6394
10480,Cu6O16V4,0.924,14,8.06199,6.304688,6.539377,69.93974,90.0,90.0
10481,Hg2O8W2,2.2756,15,6.5613,6.5613,5.238511,70.08639,70.08639,56.78978
10482,As2Ca1Zn2,0.7231000000000001,164,4.166048,4.166048,6.9864809999999995,89.99858,90.00142,119.9985
10483,Al2Mg2Se5,1.075,164,3.916519,3.916519,16.31122,90.00044,89.99956,120.0027
10484,F4O4Sc4,4.8169,14,5.006591,5.400956,5.867583,91.02302,90.0,90.0
10485,O4Sn1Sr2,2.1463,139,7.013635,7.013635,7.013635,145.3282,145.3282,49.84566
10486,O8Se2Te2,2.9358,1,4.4821100000000005,6.859861,7.645984,116.5323,107.0139,90.33549
10487,Dy8S16Zn4,2.3982,62,6.312374,7.906793,13.52706,90.0,90.0,90.0
10488,C1Li4O4,5.1006,8,4.576089,4.576089,5.219076,59.42991,59.42991,86.17717
10489,Ho1Na1Se2,1.8728,166,7.376481,7.376481,7.376481,32.48292,32.48292,32.48292
10490,F12K6Y2,6.483,14,6.646996,6.35602,11.07618,123.8133,90.0,90.0
10491,As4Li12S12,2.2822,33,6.699636,8.147103,9.914155,90.0,90.0,90.0
10492,O3Sn1Zr1,1.7539,221,4.198579,4.198579,4.198579,90.0,90.0,90.0
10493,Ba4I4O2,3.0319,72,8.758594,8.758594,8.758594,133.4758,127.5353,72.70462
10494,Ba6O10Si2,3.5267,140,7.737536,7.737536,7.737536,122.8042,122.8042,85.20802
10495,Au2Sc1Y1,0.3809,216,4.840108,4.840108,4.840108,60.0,60.0,60.0
10496,Mg8O24Si8,4.6128,60,5.379744,8.85999,9.350233,90.0,90.0,90.0
10497,As2Ca2O7,3.3025,12,5.93039,5.93039,4.98165,82.96647,82.96647,105.4762
10498,Bi4O12Sc4,2.7834,9,5.850812,5.850812,10.24353,73.74242,73.74242,61.14621
10499,Co8Na20O20,1.6708,15,8.539927,8.539927,11.53957,76.89425,76.89425,56.69838
10500,Na1O3V1,0.20120000000000002,221,3.77173,3.77173,3.77173,90.0,90.0,90.0
10501,Co2P2S6,1.2582,12,5.940215,5.940215,7.274568,81.79305,81.79305,119.6419
10502,Ba8Hg4S12,1.3515000000000001,62,4.41062,9.068065,17.53437,90.0,90.0,90.0
10503,Ag4Cu4O6,0.1076,141,6.88672,6.88672,6.88672,128.6699,128.6699,75.54233
10504,Al4Mg2O8,5.1112,227,5.777241,5.777241,5.777241,60.0,60.0,60.0
10505,As10Fe8O26,1.3575,2,9.305682000000001,9.770332,9.068229,58.83162,67.51012,64.70021
10506,Mg2O10Ti4,3.2156000000000002,63,5.300237,5.300237,10.13295,90.0,90.0,137.6941
10507,Ca1O4U1,2.7949,166,6.327803,6.327803,6.327803,36.2885,36.2885,36.2885
10508,Li8Mo6O16,1.409,166,11.33081,11.33081,11.33079,29.72782,29.72782,29.72678
10509,I4O12Zn2,3.1925,4,5.553597,5.33005,9.478456,90.0,90.36477,90.0
10510,In2Si2Te6,0.527,162,7.142812,7.142811,7.470404,89.99862,89.99844,120.0011
10511,K12Ni4O8,1.476,92,6.098459,6.098459,14.04997,90.0,90.0,90.0
10512,F24Na8Zr4,6.2462,14,5.50308,5.6604,16.38811,83.82287,90.00188,89.99881
10513,Ce8I8S8,0.9273,57,7.41045,7.787273,18.43665,90.0,89.98681,90.0
10514,Cu2In2Te4,0.2519,122,7.717974,7.717974,7.717974,131.8995,131.8995,70.38776
10515,Ce6O16Zr2,2.3018,15,7.703589,5.473047,9.3616,55.35964,91.40157,91.12824
10516,Ag1O3V1,0.1231,221,3.80871,3.80871,3.80871,90.0,90.0,90.0
10517,Ca4Mn4O12,0.38720000000000004,62,5.414138,5.333899,7.569663,90.0,90.0,90.0
10518,Au2F8Rb2,2.9536,140,7.521784,7.521784,7.521784,130.2378,130.2378,73.02689
10519,O8P2Tb2,5.8701,141,5.8044519999999995,5.8044519999999995,5.8044519999999995,105.9512,105.9512,116.767
10520,O14Ti4Yb4,0.0838,227,7.170228,7.170228,7.170228,60.0,60.0,60.0
10521,Br3Cs1Yb1,2.9563,221,5.784372,5.784372,5.784372,90.0,90.0,90.0
10522,F3Na1Zn1,0.0975,221,4.026899,4.026899,4.026899,90.0,90.0,90.0
10523,F3K1Mg1,6.9351,221,4.057184,4.057184,4.057184,90.0,90.0,90.0
10524,I4Li4O16,2.1919,14,8.679777,5.315508,9.315974,66.89942,90.0,90.0
10525,Nb2Nd2O8,4.1755,15,6.38385,6.38385,6.27659,106.6038,106.6038,115.3188
10526,As4O16P4,4.5587,62,5.05453,7.736071,8.701615,90.0,90.0,90.0
10527,Cl18Cs2W6,0.7949,147,9.827145999999999,9.827275,8.958207,90.00164,89.99882,120.0001
10528,In2K6P4,0.7921,72,8.951744,8.951744,8.951744,134.8504,129.0853,70.38271
10529,Be8Cs4F20,7.161,213,8.071416,8.071416,8.071416,90.0,90.0,90.0
10530,Mg2O6Ti2,3.8253,148,5.551067,5.551067,5.551067,55.16782,55.16782,55.16782
10531,K4O18Si8,4.6355,176,6.698498,6.698439,9.633678,90.0,90.0,120.0003
10532,O3Si1Ti1,1.6199,221,3.899721,3.899721,3.899721,90.0,90.0,90.0
10533,Cl22P2W8,0.6173000000000001,12,8.807071,8.807071,11.57695,89.31863,89.31863,69.7115
10534,F4Fe1Rb1,2.3848000000000003,123,3.951883,3.951883,6.567687,90.0,90.0,90.0
10535,Ca4Ge14O32,2.8043,117,11.50602,11.50602,4.720233,90.0,90.0,90.0
10536,Dy4O14V4,0.8117000000000001,227,7.150299,7.150299,7.150299,60.0,60.0,60.0
10537,In4O16V4,2.8953,12,7.072751,7.072751,7.149149,78.92702,78.92702,85.03706
10538,Ca4Mn4O12,0.384,62,5.408933,5.335836,7.569386,90.0,90.0,90.0
10539,O32Te12Zr4,3.6742,206,10.03993,10.03993,10.03993,109.4712,109.4712,109.4712
10540,Bi4Cr4O12,1.5425,62,5.470797,5.686392,7.846249,90.0,90.0,90.0
10541,Be2Li2P2,1.1604,129,3.611831,3.611831,6.015076,90.0,90.0,90.0
10542,Cd4O14Ta4,2.1174,227,7.44897,7.44897,7.44897,60.0,60.0,60.0
10543,Ca1O3Sn1,0.6901,221,4.123894,4.123894,4.123894,90.0,90.0,90.0
10544,C16N16S8,3.843,61,6.957555,8.563058,13.84573,90.0,90.0,90.0
10545,Mg4O14V4,2.6844,2,10.82617,5.494736,5.03927,81.27318,74.96806,74.37823
10546,Cu4S8Y4,1.8549,62,3.972201,6.288117,13.52011,90.0,90.0,90.0
10547,F2Nd2O2,3.8454,166,7.060136,7.060136,7.060136,33.07509,33.07509,33.07509
10548,Li12N8W2,3.1463,137,6.724352,6.724352,4.943004,90.0,90.0,90.0
10549,F3P1Pd1,0.4189,221,4.080176,4.080176,4.080176,90.0,90.0,90.0
10550,Li5N2Na1,0.3771,6,3.6367380000000002,3.856603,7.386889,79.49358,90.0,90.0
10551,Er8O20Si4,4.7088,14,6.824842,6.687106,9.077884,74.58839,90.0,90.0
10552,Bi4O12W2,2.0691,41,8.916563,8.916563,5.547633,90.0,90.0,143.5486
10553,Al8O16Sr4,4.1322,4,8.9265,5.205644,8.552185,86.49037,90.0,90.0
10554,As2Cd2K2,0.2566,129,4.604292,4.604292,7.981296,90.0,90.0,90.0
10555,Ba1O3Ti1,2.1323,221,4.060494,4.060494,4.060494,90.0,90.0,90.0
10556,N9O27Rb9,3.2248,144,10.67702,10.67882,7.625716,89.97764,90.01254,120.0054
10557,Co1O3Ti1,0.3466,221,3.87461,3.87461,3.87461,90.0,90.0,90.0
10558,Cs6F14Ni2,0.7381000000000001,127,8.459615,8.459615,6.303718,90.0,90.0,90.0
10559,As8Ca6In4,0.21530000000000002,58,4.367343,6.680531,16.24641,90.0,90.0,90.0
10560,Rb1Sc5Te8,0.6774,12,11.07678,11.07678,10.42037,75.85169,75.85169,21.99214
10561,Cd8S12Si2,1.5057,9,7.200033,7.200033,12.55333,72.25005,72.25005,59.52398
10562,Ba10N12Ti4,1.5562,2,9.978303,9.759872,6.645804,68.78667,78.09797,65.56879
10563,Ga8Li24N16,2.4763,206,8.360327999999999,8.360327999999999,8.360327999999999,109.4712,109.4712,109.4712
10564,Al1Re1Ti2,0.0449,216,4.434111,4.434111,4.434111,60.0,60.0,60.0
10565,Ga2Se4Zn1,1.5482,82,6.779866,6.779866,6.779866,131.0462,131.0462,71.7397
10566,Bi8O20Te4,2.4396,39,8.870835,8.870835,11.76088,90.0,90.0,143.0859
10567,F20K4Pd8,1.8219,62,6.321891,7.628762,10.90163,90.0,90.0,90.0
10568,Ca2Mo2O8,3.3452,88,6.902467,6.902467,6.902467,134.8503,134.8503,65.76284
10569,F38Ga6Pb10,4.7904,108,10.99119,10.99119,10.99119,97.35162,97.35162,138.0804
10570,B3Bi1O6,3.8957,5,4.422041,4.422041,6.679265,78.44422,78.44422,73.67601
10571,Ta2W1Zn1,0.11860000000000001,216,4.5607109999999995,4.5607109999999995,4.5607109999999995,60.0,60.0,60.0
10572,La1O12Sb5,3.0194,166,7.060371,7.060372,7.06037,63.15873,63.15873,63.15873
10573,Cl12Hg4Na4,2.5332,62,4.162338,7.552156,18.20738,90.0,90.0,90.0
10574,As1Ca2I1,1.5716,166,7.965856,7.965856,7.965856,32.08796,32.08796,32.08796
10575,Bi4Cr4O12,1.3138,15,5.575057,5.575057,9.772128,73.82569,73.82569,60.20956
10576,As2Yb1Zn2,0.5402,164,4.16754,4.16754,6.966845,89.99893,90.00107,119.9989
10577,Ca1F3Rb1,6.3807,221,4.522189,4.522189,4.522189,90.0,90.0,90.0
10578,Na1Nb1O3,1.8353000000000002,221,3.9875689999999997,3.9875689999999997,3.9875689999999997,90.0,90.0,90.0
10579,Ba3S7Zr2,0.5051,139,13.41155,13.41155,13.41155,158.3269,158.3269,30.83888
10580,Cd2Cr4S8,1.0666,227,7.360518,7.360518,7.360518,60.0,60.0,60.0
10581,Cs3F6Y1,5.328,139,7.227048,7.227048,7.227048,119.5601,119.5601,90.76366
10582,Br2Se4Tl10,0.3185,140,9.096167,9.096296,9.096342,122.4945,122.494,85.73098
10583,Cu2Hg1I4,0.6228,111,6.195792,6.195792,6.362964,90.0,90.0,90.0
10584,Ca10N12Si4,2.1654,15,5.790439,5.790058,12.77489,81.36317,81.35113,63.239
10585,N9O27Tl9,2.8604000000000003,144,10.6187,10.6187,7.53413,90.0,90.0,120.0
10586,C2Ca2O6,4.9916,167,6.462797,6.462797,6.462797,45.86262,45.86262,45.86262
10587,Cd1F3Sb1,0.4315,221,4.558162,4.558162,4.558162,90.0,90.0,90.0
10588,Cd2I12Tl8,2.1793,128,9.399189,9.399189,9.920622,90.0,90.0,90.0
10589,Ho8S20Zr4,1.2499,62,7.249804,7.730665,11.57676,90.0,90.00017,90.0
10590,Ge16Mg16O48,2.8316,61,5.422271,9.073338,19.07989,90.0,90.0,90.0
10591,Au2Ge8Rb6,0.8887,59,6.248382,6.949437,12.56819,90.0,90.0,90.0
10592,Ca8Hf32O72,4.4459,15,11.48063,11.48063,12.03641,67.89516,67.89516,79.19734
10593,Al1F3Sr1,3.3692,221,4.752343,4.752343,4.752343,90.0,90.0,90.0
10594,Cl16Co4Rb8,3.7623,33,7.312648,7.020056,19.53493,90.0,90.0,90.0
10595,Hg9O18S3,0.529,152,7.186852,7.187125,10.54492,89.99923,89.99718,120.0003
10596,C2Mg2O6,4.9536,167,5.745743,5.745743,5.745743,48.1584,48.1584,48.1584
10597,O16S4Sr4,5.9031,62,5.4376619999999996,6.960084,8.478393,90.0,90.0,90.0
10598,Br18Cs6Ho4,4.2156,167,10.45931,10.45931,10.45931,83.39529,83.39529,83.39529
10599,Dy4S10Sn2,0.1247,55,3.828804,7.7544830000000005,11.46268,90.0,90.0,90.0
10600,Al4Ba2O8,3.9453,182,5.267129,5.267129,8.983349,90.0,90.0,120.0067
10601,Cl4Hg6O4,0.2959,14,7.116558,6.488706,6.951049,66.30405,90.0,90.0
10602,Lu4Mg2Se8,1.4897,227,8.135244,8.135244,8.135244,60.0,60.0,60.0
10603,Cu2Ga2S4,1.1219999999999999,122,6.523214,6.523214,6.523214,131.3442,131.3442,71.26676
10604,Gd2O18P6,5.434,20,7.034526,7.034526,7.297148,90.0,90.0,105.1803
10605,K2Se1Zn1,1.5626,225,5.699134,5.699134,5.699134,60.0,60.0,60.0
10606,Cd8I16O48,3.2789,29,5.576557,11.36035,17.88292,90.0,90.0,90.0
10607,Co2Cr2O8,1.8975,63,5.072916,5.072916,6.355801,90.0,90.0,113.1735
10608,La6O14Ru2,1.1652,63,6.82429,6.82429,7.762047,90.0,90.0,112.1949
10609,Na1O3Ta1,2.2538,221,3.982676,3.982676,3.982676,90.0,90.0,90.0
10610,Li2O10V4,0.34690000000000004,59,3.61153,4.736268,11.47521,90.0,90.0,90.0
10611,Co1Ge1Ta1,1.1666,216,4.012953,4.012953,4.012953,60.0,60.0,60.0
10612,K4Mn4O16,2.0516,62,5.896613,7.508458,9.282896,90.0,90.0,90.0
10613,O8Si2Zr2,4.4591,141,5.622134,5.622134,5.622134,106.7723,106.7723,115.0154
10614,Rb4Sb4Se8,1.5316,1,13.41602,6.9250609999999995,6.92423,75.24507,73.479,70.48847
10615,Br6Cd2Cs2,3.0042,194,7.855918,7.855982,6.88879,90.0,90.0,119.9997
10616,Cr4O8Zn2,2.6330999999999998,227,5.951808,5.951808,5.951808,60.0,60.0,60.0
10617,F6K2Th1,6.3741,189,6.750027,6.750027,3.967113,90.0,90.0,120.0
10618,La2O2S1,2.9249,164,4.104668,4.104658,7.045542,89.99842,90.00067,119.9989
10619,Mn2O10Se4,2.5339,15,6.885619,6.885619,5.989439,74.43646,74.43646,107.1343
10620,Al2Se4Zn1,2.2756,82,6.768838,6.768838,6.768838,131.0838,131.0838,71.67999
10621,Ba4Cl16Zn4,4.8961,60,6.53457,6.892516,15.58217,90.0,90.0,90.0
10622,La2Ni1O4,0.1893,139,6.942434,6.942434,6.942434,147.1402,147.1402,47.15618
10623,Li4Mo4S8,1.0556,2,6.692689,6.818734,6.298115,89.96859,90.24344,118.9089
10624,As4Co14O24,1.0696,74,10.54044,10.54044,10.54044,147.3718,131.9302,59.30871
10625,Nb6O20U2,2.3084,70,10.30824,8.841121,7.507951,77.70287,56.92916,45.36797
10626,Na2Nb6O16,2.4026,72,7.321804,7.321804,7.321804,121.5834,119.558,89.02343
10627,C4N4S18,2.5805,4,6.159202,9.108719,13.23621,77.06224,90.0,90.0