,full_formula,band_gap,spacegroup.number,structure.lattice.a,structure.lattice.b,structure.lattice.c,structure.lattice.alpha,structure.lattice.beta,structure.lattice.gamma
6114,Cl1Rb1,4.8465,225,4.7319890000000004,4.7319890000000004,4.7319890000000004,60.0,60.0,60.0
6115,O4Pb2,0.0235,136,5.080338,5.080338,3.451184,90.0,90.0,90.0
6116,Dy16O24,3.9290000000000003,206,9.24254,9.24254,9.24254,109.4712,109.4712,109.4712
6117,Pb1Se1,0.39840000000000003,225,4.386924,4.386924,4.386924,60.0,60.0,60.0
6118,N1Sc1,0.45,225,3.243044,3.243044,3.243044,60.0,60.0,60.0
6119,O16Pb12,1.1364,135,9.016765,9.016765,6.776579,90.0,90.0,90.0
6120,Dy16O24,3.9245,206,9.244766,9.244766,9.244766,109.4712,109.4712,109.4712
6121,Ce2O3,2.7142,164,3.92668,3.92668,6.162189,89.83309,90.16691,119.7713
6122,Ca1F2,7.1267,225,3.898179,3.898179,3.898179,60.0,60.0,60.0
6123,Br1K1,3.8802000000000003,221,4.042034,4.042034,4.042034,90.0,90.0,90.0
6124,Bi8O12,2.3008,14,8.334381,5.924439,7.567671,67.32256,90.0,90.0
6125,F2Sr1,6.7691,225,4.142915,4.142915,4.142915,60.0,60.0,60.0
6126,O6Rh4,1.7282000000000002,167,5.577092,5.577092,5.577092,55.63556,55.63556,55.63556
6127,O8Si4,3.5812,7,4.251031,4.296061,7.188419,89.26621,90.0,90.0
6128,O6Si3,5.717,154,4.972877,4.972811,5.46929,90.00034,89.99933,119.9989
6129,Cd12I24,2.4072,156,4.313658,4.313633,87.91343,90.00224,90.0,120.0002
6130,Cd4O8,1.419,205,5.384933,5.384933,5.384933,90.0,90.0,90.0
6131,K6Te6,0.1816,189,9.677876,9.677876,6.48996,90.0,90.0,120.0008
6132,Cl4O12,1.1918,9,5.400738,5.400738,10.34255,82.03786,82.03786,115.133
6133,Br1Na1,4.1143,225,4.2497489999999996,4.2497489999999996,4.2497489999999996,60.0,60.0,60.0
6134,O6Si3,5.7222,154,4.965999,4.964916,5.46574,90.00398,90.0039,120.0005
6135,F18La6,7.6955,165,7.299116,7.299113,7.465502,89.99966,90.00031,120.0002
6136,Mn1S1,0.8195,225,3.736031,3.736031,3.736031,60.0,60.0,60.0
6137,Bi8O12,2.5915,227,8.076418,8.076418,8.076418,60.0,60.0,60.0
6138,Rb16Sn16,0.7323000000000001,142,12.95902,12.95902,12.95902,124.9837,124.9837,81.56508
6139,Mn1O1,0.1746,225,3.194891,3.194891,3.194891,60.0,60.0,60.0
6140,Be2O2,7.4595,186,2.7095700000000003,2.709554,4.403019,90.0,90.0,120.0002
6141,O16Si8,5.392,63,7.101827,7.101827,9.057164,90.0,90.0,94.46707
6142,Ge4Os2,0.0253,12,4.808685,4.808685,7.765428,62.46368,62.46368,37.86251
6143,Ge1Te1,0.36920000000000003,225,4.248962,4.248962,4.248962,60.0,60.0,60.0
6144,Ce1O2,2.4183,225,3.885096,3.885096,3.885096,60.0,60.0,60.0
6145,O4Ti2,2.5764,141,5.59565,5.59565,5.59565,139.6628,139.6628,58.36569
6146,Cd9I18,2.3906,156,4.313076,4.3130500000000005,65.25126,90.00174,90.0,120.0002
6147,Se4Sn4,0.6517000000000001,62,4.250457,4.577439,11.93942,90.0,90.0,90.0
6148,Cr1I2,1.2022,12,4.370791,4.370791,7.747301,67.62326,67.62326,54.43558
6149,Pb1S1,0.4651,225,4.246099,4.246099,4.246099,60.0,60.0,60.0
6150,Bi2Se3,0.30060000000000003,166,10.08204,10.08204,10.08204,24.0458,24.0458,24.0458
6151,F18S3,5.868,12,8.370473,8.370473,4.9774069999999995,85.32881,85.32881,61.06507
6152,F3Sc1,6.5707,221,4.123638,4.123638,4.123638,90.0,90.0,90.0
6153,Co6S8,0.4223,227,6.8284579999999995,6.8284579999999995,6.8284579999999995,60.0,60.0,60.0
6154,Al6H18,3.2346,58,5.402416,5.75342,7.350108,90.0,90.0,90.0
6155,In16Te12,0.08220000000000001,58,4.5084,12.95313,15.88179,90.0,90.0,90.0
6156,O6Si3,5.7108,152,4.983098,4.982932,5.467625,90.00023,89.99787,119.9974
6157,Ba1Te1,0.7815000000000001,221,4.26353,4.26353,4.26353,90.0,90.0,90.0
6158,F3Sc1,6.5706,221,4.123691,4.123691,4.123691,90.0,90.0,90.0
6159,Bi8S12,1.3679999999999999,62,4.029815,11.20256,11.65465,90.0,90.0,90.0
6160,Be3F6,8.3385,152,4.798393,4.7983,5.253271,90.00896,89.98979,119.9845
6161,Ge3O6,3.1412,152,5.026241,5.026271,5.748682,89.99511,90.00472,120.0124
6162,Hg3S3,1.5469,154,4.384752,4.384715,9.652265,90.00033,90.00034,120.0019
6163,O4Ti2,2.2647,136,4.671658,4.671658,3.022764,90.0,90.0,90.0
6164,Br1K1,4.3271,225,4.737082,4.737082,4.737082,60.0,60.0,60.0
6165,Ag1Cl1,1.9717,225,3.970731,3.970731,3.970731,60.0,60.0,60.0
6166,Mg12O12,4.0268,194,3.001481,3.001438,29.81301,90.0,90.0,120.0005
6167,Ag4P8,0.7456,14,5.164116,6.301857,7.908359,66.49257,90.0,90.0
6168,F4Tl4,3.1512000000000002,57,5.339946,5.639304,6.436791,90.0,90.0,90.0
6169,I32Pt12,0.8446,92,12.03607,12.03607,10.96005,90.0,90.0,90.0
6170,F4Mn2,2.586,136,4.971687,4.971687,3.341885,90.0,90.0,90.0
6171,Mn1O1,0.1757,225,3.194311,3.194311,3.194311,60.0,60.0,60.0
6172,S28Zn28,2.6819,156,3.797144,3.797111,86.91788,89.99999,90.0,120.0003
6173,As1Na3,0.185,225,5.039987,5.039987,5.039987,60.0,60.0,60.0
6174,Be16Cl32,6.5248,142,12.07381,12.07381,12.07381,124.2097,124.2097,82.85118
6175,O9Tb6,3.9368,12,7.288664,7.288664,8.717123,79.98313,79.98313,28.06171
6176,I1Rb1,3.7921,225,5.282642,5.282642,5.282642,60.0,60.0,60.0
6177,Gd16O24,3.6132,206,9.422312,9.422312,9.422312,109.4712,109.4712,109.4712
6178,Cs1I1,3.8625,225,5.552608,5.552608,5.552608,60.0,60.0,60.0
6179,S4V4,0.36710000000000004,62,3.636508,6.292449,6.093589,90.0,90.0,90.0
6180,Cd7I14,2.3810000000000002,156,4.313319,4.313304,50.90975,90.00161,90.0,120.0001
6181,O6Si3,5.6795,154,5.017648,5.01736,5.50123,89.99743,90.00116,119.9977
6182,S12Tb8,0.5842,62,3.893807,10.50454,10.71078,90.0,90.0,90.0
6183,F8Pd2,1.0333,43,6.717103,5.650242,5.559427,73.62366,53.80837,52.56797
6184,O4Ti2,2.2615,136,4.674525,4.674525,3.026018,90.0,90.0,90.0
6185,Se2Sn2,0.34850000000000003,63,6.46829,6.46829,4.364451,90.0,90.0,141.1223
6186,O8Si4,5.5499,92,5.016163,5.016163,6.962858,90.0,90.0,90.0
6187,F4Mn2,2.5858,136,4.972604,4.972604,3.343427,90.0,90.0,90.0
6188,F6In2,4.1614,167,5.822548,5.822548,5.822548,56.50527,56.50527,56.50527
6189,Ca1O1,3.6356,225,3.421774,3.421774,3.421774,60.0,60.0,60.0
6190,O8Te4,2.7958,92,4.985797,4.985797,7.647575,90.0,90.0,90.0
6191,Cd7I14,2.3904,156,4.30991,4.309884,50.92883,90.00237,90.0,120.0002
6192,Cl16Yb8,3.4039,61,6.723922,6.942266,13.20639,90.0,90.0,90.0
6193,Al4O6,5.8637,167,5.180335,5.180335,5.180335,55.27108,55.27108,55.27108
6194,Mg1S1,2.7708,225,3.692971,3.692971,3.692971,60.0,60.0,60.0
6195,Cd9I18,2.3836,156,4.31559,4.315591,65.40974,90.00146,89.99853,120.0008
6196,Ca1F2,7.1316,225,3.897096,3.897096,3.897096,60.0,60.0,60.0
6197,C60Cs6,0.7461,204,10.38871,10.38871,10.38871,109.4712,109.4712,109.4712
6198,O2Th1,4.5404,225,4.119814,4.119814,4.119814,60.0,60.0,60.0
6199,Mg2Si1,0.2331,225,4.488059,4.488059,4.488059,60.0,60.0,60.0
6200,Se4V5,0.5821000000000001,87,7.277788,7.277788,7.277788,93.89006,93.89006,149.8046
6201,Ca1Se1,2.0762,225,4.217378,4.217378,4.217378,60.0,60.0,60.0
6202,Hf1O2,3.8052,225,3.588253,3.588253,3.588253,60.0,60.0,60.0
6203,Co6O8,0.3225,227,5.971719,5.971719,5.971719,60.0,60.0,60.0
6204,B6Si1,0.0585,221,4.132297,4.132297,4.132297,90.0,90.0,90.0
6205,F4Tl4,3.1777,57,5.274691,5.757944,6.377951,90.0,90.0,90.0
6206,Ni2S2,0.2005,194,3.530518,3.530518,5.646545,90.0,90.0,120.0041
6207,O8Si4,5.5376,92,5.034793,5.034793,6.999301,90.0,90.0,90.0
6208,Mn4Te8,0.17120000000000002,205,7.076089,7.076089,7.076089,90.0,90.0,90.0
6209,Mg1O1,4.469,225,3.007271,3.007271,3.007271,60.0,60.0,60.0
6210,O6Si3,5.677,152,5.022763,5.022763,5.51473,90.0,90.0,120.0
6211,Os4S8,0.4272,205,5.674501,5.674501,5.674501,90.0,90.0,90.0
6212,I4Pb2,2.385,166,15.08005,15.08005,15.08005,17.73367,17.73367,17.73367
6213,P4Ru2,0.4636,58,2.8961259999999998,5.127617,5.939354,90.0,90.0,90.0
6214,Fe16O24,1.3953,33,5.150229,8.891926,9.455388,90.0,90.0,90.0
6215,Cl8Zn4,4.5893,33,6.206397,6.4288,7.896708,90.0,90.0,90.0
6216,O4Si2,5.002,136,4.23223,4.23223,2.694272,90.0,90.0,90.0
6217,N16Si12,4.6528,159,7.808126,7.808139,5.658872,90.00001,89.99999,119.9999
6218,Al4O6,4.4601,12,6.139771,6.139771,5.671773,76.40337,76.40337,27.70107
6219,N1Sc1,0.44920000000000004,225,3.242355,3.242355,3.242355,60.0,60.0,60.0
6220,O16Si8,5.5488,15,7.235079,7.235079,7.221705,75.62307,75.62307,119.9283
6221,Pb1Te1,0.8105,225,4.646251,4.646251,4.646251,60.0,60.0,60.0
6222,Fe2Se4,1.1547,58,3.684089,4.843325,5.900726,90.0,90.0,90.0
6223,Cd11I22,2.3518,156,4.31295,4.312932,79.51717,89.99985,90.0,120.0001
6224,Be1O1,8.1923,225,2.579185,2.579185,2.579185,60.0,60.0,60.0
6225,Ni1O1,1.7915,225,2.988731,2.988731,2.988731,60.0,60.0,60.0
6226,As8S8,2.0748,15,7.330963,7.330963,9.578304,81.16248,81.16248,85.39965
6227,Bi2Te3,0.3759,166,10.78629,10.78629,10.78629,23.81227,23.81227,23.81227
6228,Cd5I10,2.4075,156,4.316121,4.316121,36.34341,90.00019,89.99981,120.0009
6229,O24U8,2.8083,141,11.4682,11.4682,11.4682,144.3298,144.3298,51.33445
6230,Ru4Se8,0.8634000000000001,205,6.021288,6.021288,6.021288,90.0,90.0,90.0
6231,Cr4O6,2.3771,167,5.449119,5.449119,5.449119,55.639920000000004,55.639920000000004,55.639920000000004
6232,Pb4S4,1.1272,11,4.03294,5.972496,10.445,88.45696,90.0,90.0
6233,S4V4,0.38870000000000005,194,3.634675,6.102844,6.293676,89.99992,90.0,90.0
6234,O8Zr4,3.4754,14,5.285846,5.216108,5.397851,80.37459,90.0,90.0
6235,Br14In8,2.252,166,16.51509,16.51509,16.51509,27.21552,27.21552,27.21552
6236,N8Si6,4.2454,176,7.660337,7.660301,2.9251329999999998,90.0,90.0,119.9995
6237,N4Th3,1.4596,166,9.761303999999999,9.761303999999999,9.761303999999999,23.64508,23.64508,23.64508
6238,Ge4O8,0.7442000000000001,205,4.767313,4.767313,4.767313,90.0,90.0,90.0
6239,H1Li1,2.9621,225,2.826122,2.826122,2.826122,60.0,60.0,60.0
6240,Ho16O24,3.9502,206,9.18922,9.18922,9.18922,109.4712,109.4712,109.4712
6241,O4Zr2,3.8628,137,3.642979,3.642979,5.294736,90.0,90.0,90.0
6242,Cl1Na1,5.0569,225,4.005591,4.005591,4.005591,60.0,60.0,60.0
6243,P8S10,2.4522,4,11.66556,6.9015,7.244614,67.37852,90.0,90.0
6244,In1P1,0.5804,216,4.199309,4.199309,4.199309,60.0,60.0,60.0
6245,Al16F48,7.3104,129,10.32601,10.32601,7.274697,90.0,90.0,90.0
6246,C48N24,3.1072,205,11.01656,11.01656,11.01656,90.0,90.0,90.0
6247,Br6Gd2,3.7837,12,7.363779,7.363779,7.317646,80.99754,80.99754,120.01
6248,O18Te8,2.2302,148,7.505786,7.505793,7.50579,78.36977,78.36997,78.36963
6249,Li2O1,4.9029,225,3.289356,3.289356,3.289356,60.0,60.0,60.0
6250,Na2Se1,2.0584,225,4.820495,4.820495,4.820495,60.0,60.0,60.0
6251,In1P1,0.5775,216,4.200013,4.200013,4.200013,60.0,60.0,60.0
6252,O36Si18,5.6231,71,12.54536,12.54536,12.54536,144.8953,110.2818,80.51789
6253,Tc24Te60,0.6117,61,13.35967,13.40332,14.44362,90.0,90.0,90.0
6254,Pb1S1,0.46540000000000004,225,4.246214,4.246214,4.246214,60.0,60.0,60.0
6255,Br1K1,3.8662,221,4.048284,4.048284,4.048284,90.0,90.0,90.0
6256,Cd8I16,2.3847,156,4.313383,4.313358,57.96619,90.00245,90.0,120.0002
6257,Br8Th2,3.0256,141,7.714581,7.714581,7.714581,106.7963,106.7963,114.9648
6258,As1Na3,0.1734,225,5.045615,5.045615,5.045615,60.0,60.0,60.0
6259,O4Ti2,2.2665,136,4.672034,4.672034,3.023644,90.0,90.0,90.0
6260,Cd2P8,0.6263000000000001,14,5.188814,5.3224730000000005,7.695089,80.94473,90.0,90.0
6261,Os8Si16,0.7297,64,6.531214,6.531214,8.266499,90.0,90.0,102.9291
6262,As2I6,2.2188,148,8.559706,8.559706,8.559706,51.15374,51.15374,51.15374
6263,O8Si4,5.2588,60,5.079593,4.115694,4.525506,90.0,90.0,90.0
6264,C8O8,6.0226,161,7.435199,7.435199,7.435199,85.69091,85.69091,85.69091
6265,O6Si3,5.7099,152,4.985566,4.984457,5.4847909999999995,90.00295,90.00175,120.0001
6266,Ho16O24,3.9492000000000003,206,9.186507,9.186507,9.186507,109.4712,109.4712,109.4712
6267,Pb1S1,0.46530000000000005,225,4.246184,4.246184,4.246184,60.0,60.0,60.0
6268,N3Na1,4.0083,166,5.549998,5.549998,5.549998,38.6177,38.6177,38.6177
6269,N6Tl2,1.7966000000000002,140,5.833216,5.833216,5.833216,114.1405,114.1405,100.489
6270,Er6O9,4.112,12,7.180153,7.180153,8.568173,79.88795,79.88795,27.90801
6271,Mg24Sb16,1.3181,206,11.61773,11.61773,11.61773,109.4712,109.4712,109.4712
6272,H1Na1,1.0365,221,2.940905,2.940905,2.940905,90.0,90.0,90.0
6273,K2S1,2.3203,225,5.279128,5.279128,5.279128,60.0,60.0,60.0
6274,Ga4S4,1.6656,194,3.618352,3.618352,15.88881,90.0,90.0,120.0114
6275,As8S8,2.0625,15,7.312379,7.312379,9.578921,81.10362,81.10362,85.25162
6276,F4Zn2,4.9391,136,4.690122,4.690122,3.077196,90.0,90.0,90.0
6277,I2Tl2,2.0943,63,6.987732,6.987732,5.315378,90.0,90.0,140.963
6278,Be2O2,7.4636,186,2.71,2.71,4.4030000000000005,90.0,90.0,120.0
6279,O4Si2,5.7257,122,5.125156,5.125156,5.125156,121.2265,121.2265,87.88849
6280,C3N4,1.3353000000000002,160,4.461724,4.461724,4.461724,64.82518,64.82518,64.82518
6281,Cl6Nd2,2.8983,11,7.529616,7.5522279999999995,4.276745,90.0,90.0,120.0137
6282,Cl18Ti6,2.5122,12,6.423184,6.423184,19.16782,89.27377,89.27377,120.898
6283,O36Si18,4.5197,1,8.320199,8.32052,10.41952,89.97049,90.06432,119.9841
6284,Eu8I16,3.3445,61,7.969046,8.299803,15.48036,90.0,90.0,90.0
6285,Pb1Te1,0.7989,225,4.636538,4.636538,4.636538,60.0,60.0,60.0
6286,S4Sn4,0.9149,62,4.101811,4.394993,11.74714,90.0,90.0,90.0
6287,As16Mg24,1.4378,206,10.79724,10.79724,10.79724,109.4712,109.4712,109.4712
6288,As1Ga1,0.29560000000000003,216,4.055224,4.055224,4.055224,60.0,60.0,60.0
6289,Se1Zn1,1.6977,216,4.010688,4.010688,4.010688,60.0,60.0,60.0
6290,O6Si3,5.535,181,5.104549,5.104549,5.591306,90.0,90.0,120.0001
6291,P6Rb4,0.7525000000000001,69,8.898242,8.720554,6.686824,69.11149,66.29385,44.59467
6292,O4V2,0.7446,136,4.508232,4.508232,3.035796,90.0,90.0,90.0
6293,Al2P2,1.9593,186,3.885722,3.885722,6.379825,90.0,90.0,119.9946
6294,Cd10I20,2.3708,156,4.316797,4.316797,72.27395,89.99798,90.00202,120.0008
6295,Cr3O8,0.5872,12,5.269495,5.269495,6.601202,87.80617,87.80617,62.39498
6296,Cd1Se1,0.6384000000000001,216,4.372172,4.372172,4.372172,60.0,60.0,60.0
6297,Ag2Br2,1.5701,11,4.123757,4.127259,5.829509,90.02481,90.0,90.0
6298,Cu2F4,1.8481,14,4.610308,3.342009,4.6585280000000004,82.94536,90.0,90.0
6299,O4Si2,5.0058,136,4.232905,4.232905,2.69341,90.0,90.0,90.0
6300,Cl6La2,4.4832,176,7.635105,7.634989,4.41193,90.0,90.0,119.9995
6301,Ni1O1,1.7921,225,2.988813,2.988813,2.989049,60.03102,60.03102,60.01728
6302,O1Sr1,3.2755,225,3.680597,3.680597,3.680597,60.0,60.0,60.0
6303,Ge16Se36,1.2802,29,7.193728,13.07713,18.16503,90.0,90.0,90.0
6304,Cl6Ga2,4.1455,2,7.054083,7.109466,7.13478,60.45505,61.78941,61.7739
6305,Mg1O1,4.4976,225,3.004208,3.004208,3.004208,60.0,60.0,60.0
6306,Ga2N2,1.9118,186,3.205351,3.205346,5.219335,90.0,90.0,120.0001
6307,Dy16O24,3.9303,206,9.243622,9.243622,9.243622,109.4712,109.4712,109.4712
6308,Eu1S1,0.7006,225,4.240715,4.240715,4.240715,60.0,60.0,60.0
6309,S2Sn1,1.3676,164,3.752081,3.751897,6.663914,89.99821,90.0,120.0016
6310,O4Ti2,2.2658,136,4.672626,4.672626,3.023162,90.0,90.0,90.0
6311,B12O2,1.8599999999999999,166,5.152646,5.152646,5.152646,63.10407,63.10407,63.10407
6312,Ca8N48,3.4316,70,5.979192,11.136050000000001,11.54633,90.0,90.0,89.9987
6313,Cl1K1,5.0327,225,4.519046,4.519046,4.519046,60.0,60.0,60.0
6314,Eu1O1,0.26580000000000004,225,3.658478,3.658478,3.658478,60.0,60.0,60.0
6315,Ca1S1,2.3834,225,4.043285,4.043285,4.043285,60.0,60.0,60.0
6316,O8Si4,2.7602,3,4.267015,4.322913,7.992787,86.30341,90.0,90.0
6317,Mg6P4,1.1048,224,6.02239,6.02239,6.02239,90.0,90.0,90.0
6318,O2Zr1,3.125,225,3.6416,3.6416,3.6416,60.0,60.0,60.0
6319,K10Te6,0.1625,87,10.30866,10.30866,10.30866,95.70185,95.70185,143.2541
6320,Mo1S2,1.2202,160,6.963486,6.963486,6.963486,26.57108,26.57108,26.57108
6321,Li12Te36,0.1547,165,8.768803,8.768803,21.48998,89.99787,90.00212,120.0017
6322,O3Pr2,3.134,164,3.896852,3.896654,6.108785,89.99785,90.0,120.0017
6323,Cr4O6,2.3717,167,5.448897,5.448897,5.448897,55.704390000000004,55.704390000000004,55.704390000000004
6324,Cl6Cr2,2.4474,148,7.181346,7.181346,7.181346,50.34021,50.34021,50.34021
6325,O24Sc16,4.2768,206,8.702129,8.702129,8.702129,109.4712,109.4712,109.4712
6326,N4W2,1.1988,194,2.950239,2.950261,7.805632,90.0,90.0,119.9998
6327,O4Ti2,2.2595,136,4.6698129999999995,4.6698129999999995,3.023866,90.0,90.0,90.0
6328,I8O20,2.6785,14,5.227013,8.464092,11.13897,72.7286,90.0,90.0
6329,Mn16Si28,0.8798,116,5.483272,5.483272,17.31428,90.0,90.0,90.0
6330,As16S16,2.3432,14,18.12788,7.664572,9.840072,82.55347,90.0,90.0
6331,Te1Zn1,1.4781,216,4.341066,4.341066,4.341066,60.0,60.0,60.0
6332,As4Mg6,0.5419,224,6.221189,6.221189,6.221189,90.0,90.0,90.0
6333,Ga4S4,1.8238,194,3.620597,3.620778,16.3799,90.0,90.0,119.9983
6334,Mn1S1,0.8432000000000001,225,3.740847,3.740847,3.740847,60.0,60.0,60.0
6335,P8S10,2.4452,4,11.66011,6.907042,7.245709,67.33494,90.0,90.0
6336,P8Se20,1.3199,14,21.77155,6.136355,7.2639949999999995,65.81251,90.0,90.0
6337,Hg2I2,1.5934,139,6.940428,6.940428,6.940428,136.5118,136.5118,63.19001
6338,Ru4S8,1.2704,205,5.677949,5.677949,5.677949,90.0,90.0,90.0
6339,O24Yb16,0.40490000000000004,206,8.991679,8.991679,8.991679,109.4712,109.4712,109.4712
6340,F18La6,7.6497,165,7.307856,7.308235,7.494709,90.00059,90.00066,120.0026
6341,O4Zr2,3.8703000000000003,137,3.644768,3.644768,5.301695,90.0,90.0,90.0
6342,P32Tc8,1.0705,61,6.288556,9.292208,10.93728,89.99855,89.99909,90.00015
6343,O4Ti2,2.2655,136,4.671848,4.671848,3.022844,90.0,90.0,90.0
6344,Rb8Te4,1.7069999999999999,62,5.607714,9.212398,11.09255,90.0,90.0,90.0
6345,C1Si1,1.3705,216,3.096527,3.096527,3.096527,60.0,60.0,60.0
6346,S2Zn2,2.7376,186,3.7956000000000003,3.7956000000000003,6.219303,90.0,90.0,119.9966
6347,F6V2,1.1102,167,5.486857,5.486857,5.486857,57.36322,57.36322,57.36322
6348,Br2Cd1,2.8581000000000003,166,6.953972,6.953972,6.953972,33.85666,33.85666,33.85666
6349,O12Sb8,3.3346999999999998,227,8.113167,8.113167,8.113167,60.0,60.0,60.0
6350,Hf1S2,1.2236,164,6.414305,3.646885,3.645914,60.00353,90.13748,90.00733
6351,Ce1O2,2.4253,225,3.882538,3.882538,3.882538,60.0,60.0,60.0
6352,Eu1O1,0.2679,225,3.6590100000000003,3.6590100000000003,3.6590100000000003,60.0,60.0,60.0
6353,Bi2I6,2.5042999999999997,148,8.690072,8.690072,8.690072,53.13418,53.13418,53.13418
6354,Li1N3,3.6447000000000003,12,3.336455,3.336455,5.036736,73.65991,73.65991,60.75306
6355,Mo2Se4,1.1223,194,3.333486,3.333486,13.84731,90.0,90.0,119.9978
6356,Br4Hg2,2.5288,36,4.29877,4.29877,12.97512,90.0,90.0,108.8285
6357,F2Pb1,4.3968,225,4.237151,4.237151,4.237151,60.0,60.0,60.0
6358,Rb2S1,1.9724,225,5.535673,5.535673,5.535673,60.0,60.0,60.0
6359,O6Si3,5.7003,154,5.001257,5.001257,5.491253,90.0,90.0,120.0
6360,H1Li1,2.9617,225,2.825639,2.825639,2.825639,60.0,60.0,60.0
6361,Rb2Te1,1.8907,225,6.081168,6.081168,6.081168,60.0,60.0,60.0
6362,O4Ti2,2.5427,141,5.57152,5.57152,5.57152,139.3579,139.3579,58.8295
6363,N8Si6,3.3328,227,5.506317,5.506317,5.506317,60.0,60.0,60.0
6364,Ga4O6,2.1612,12,6.364581,6.364581,5.862715,76.62983,76.62983,27.9147
6365,O24U8,2.7955,70,11.09756,11.06613,6.777347,72.44774,71.94169,35.61056
6366,O6Si3,5.6611,152,5.043045,5.042567,5.508917,90.00018,89.99956,119.9996
6367,N16Si12,4.6561,159,7.809241,7.809241,5.659278,89.99999,89.99999,120.0001
6368,Ge4Se4,0.7653000000000001,62,3.895327,4.455018,10.98284,90.0,90.0,90.0
6369,N16Si12,4.658,159,7.807393,7.807393,5.659909,90.00003,90.00003,119.9999
6370,Cl18Ru6,1.0924,151,6.137958,6.137958,18.9559,90.0,90.0,120.0
6371,Ru2Te4,0.5173,58,4.069034,5.34976,6.473129,90.0,90.0,90.0
6372,O16Se8,3.2564,135,8.657103,8.657103,5.199676,90.0,90.0,90.0
6373,Ru2Te4,0.5123,58,4.066474,5.353404,6.476007,90.0,90.0,90.0
6374,S12Sb8,1.2847,62,3.873509,11.25464,12.09755,90.0,90.0,90.0
6375,O24Si12,5.5083,12,9.272502,9.272502,9.005756,81.28226,81.28226,110.9651
6376,Cl40Sb8,1.7212,14,13.11826,10.0904,13.36424,70.93349,90.0,90.0
6377,O16U6,1.0015,63,8.414088,7.22754,6.831569,58.06704,90.0,90.0
6378,Ag4O2,0.08710000000000001,224,4.878899,4.878899,4.878899,90.0,90.0,90.0
6379,Ag2I2,1.9983,186,4.69256,4.69256,7.70515,90.0,90.0,119.9944
6380,Cd7I14,2.4032,156,4.310163,4.310124,50.82246,90.00213,90.0,120.0003
6381,Ru4Te8,0.31670000000000004,205,6.479975,6.479975,6.479975,90.0,90.0,90.0
6382,Cu2F4,1.8559,14,4.611372,3.347558,4.663206,82.78136,90.0,90.0
6383,Li6N2,1.2203,194,3.564462,3.564579,6.35601,90.0,90.0,119.9989
6384,Ru4S8,1.2704,205,5.677951,5.677951,5.677951,90.0,90.0,90.0
6385,Fe4O6,1.2811,167,5.517087,5.517087,5.517087,55.70678,55.70678,55.70678
6386,Te1Zn1,1.4784000000000002,216,4.340995,4.340995,4.340995,60.0,60.0,60.0
6387,In16O24,1.1166,206,8.867584,8.867584,8.867584,109.4712,109.4712,109.4712
6388,O4Ti2,2.2673,136,4.671941,4.671941,3.023615,90.0,90.0,90.0