,full_formula,band_gap,spacegroup.number,structure.lattice.a,structure.lattice.b,structure.lattice.c,structure.lattice.alpha,structure.lattice.beta,structure.lattice.gamma
1958,Se8U4,0.1495,62,4.324095,7.580271,9.074883,90.0,90.0,90.0
1959,F20Ta4,5.6934000000000005,12,8.94008,8.94008,5.319289,86.91505,86.91505,112.3949
1960,O8Te4,2.8404,92,4.952323,4.952323,7.6579239999999995,90.0,90.0,90.0
1961,O4Ti2,2.2582,136,4.669206,4.669206,3.022845,90.0,90.0,90.0
1962,Mo2S4,1.2384,194,3.200333,3.200333,13.45471,90.0,90.0,120.0021
1963,Cr2S2,0.1505,15,3.612075,3.612075,6.445786,81.77308,81.77308,113.3932
1964,Cd2I4,2.3698,186,4.311519,4.3114989999999995,14.54592,90.0,90.0,120.0002
1965,Pb1Te1,0.7988000000000001,225,4.636534,4.636534,4.636534,60.0,60.0,60.0
1966,Al1Sb1,1.2272,216,4.407917,4.407917,4.407917,60.0,60.0,60.0
1967,O16Pb12,1.1246,135,9.033725,9.033725,6.776104,90.0,90.0,90.0
1968,O2Zr1,3.125,225,3.641602,3.641602,3.641602,60.0,60.0,60.0
1969,S2Zr1,1.0036,164,3.6881459999999997,3.6881459999999997,6.267545,90.0089,89.9911,120.0042
1970,I4O12,1.9118,2,5.367002,6.850915,6.903953,97.98703,96.31623,104.548
1971,Br4Ca2,4.5496,58,4.393053,6.704192,6.95137,90.0,90.0,90.0
1972,O2Zn2,1.8099,186,3.192649,3.192853,5.151271,90.0,90.0,120.0021
1973,Cd8I16,2.3887,156,4.314735,4.314714,58.0621,90.00205,90.0,120.0002
1974,O24Y16,4.0543,206,9.268628,9.268628,9.268628,109.4712,109.4712,109.4712
1975,S18Zn18,2.6843,156,3.798457,3.798434,55.8566,90.00001,90.0,120.0002
1976,Cd1Te1,0.7091000000000001,216,4.667954,4.667954,4.667954,60.0,60.0,60.0
1977,Cd1S1,1.1886,216,4.182002,4.182002,4.182002,60.0,60.0,60.0
1978,I1Tl1,1.7909000000000002,221,4.271188,4.271188,4.271188,90.0,90.0,90.0
1979,O16Ti8,2.571,61,5.268145,5.5458169999999996,9.351666,90.0,90.0,90.0
1980,Cl8Th2,3.9112999999999998,141,7.326532,7.326532,7.326532,106.5765,106.5765,115.43
1981,O6Si3,5.6933,152,5.005332,5.005312,5.470345,90.00001,90.00008,120.0004
1982,As2Li6,0.645,194,4.38075,4.380688,7.818767,90.0,90.0,120.0005
1983,Cd8I16,2.3868,156,4.31174,4.311705,58.32985,89.99767,90.0,120.0003
1984,Be24P16,0.8869,206,8.830354,8.830354,8.830354,109.4712,109.4712,109.4712
1985,Cr3Si6,0.929,181,4.421127,4.421127,6.363932,90.0,90.0,120.0
1986,Se1Zn1,1.6926,216,4.012125,4.012125,4.012125,60.0,60.0,60.0
1987,Se8U4,0.1361,62,4.308954,7.5779630000000004,9.09602,90.0,90.0,90.0
1988,O4V2,0.7285,136,4.514308,4.514308,3.029512,90.0,90.0,90.0
1989,Ba4F8,5.3403,139,3.929538,3.930455,19.10001,90.0,90.0,90.0
1990,Se20U12,0.5687,62,7.957085,8.517971,12.60856,90.0,90.0,90.0
1991,O4Si2,5.0091,136,4.231644,4.231644,2.69351,90.0,90.0,90.0
1992,Dy2P10,0.07680000000000001,11,9.431987,4.955476,5.35523,77.70133,90.0,90.0
1993,Cl4Cr2,2.0728,58,3.5472,6.080109,6.789571,90.0,90.0,90.0
1994,C4O8,6.6116,205,5.885887,5.885887,5.885887,90.0,90.0,90.0
1995,O24Pr16,2.8711,206,9.761207,9.761207,9.761207,109.4712,109.4712,109.4712
1996,Pt2S2,0.8971,131,3.532504,3.532504,6.116054,90.0,90.0,90.0
1997,Ge1Te1,0.6539,160,4.309621,4.309621,4.309621,58.94333,58.94333,58.94333
1998,O8Si4,5.5512,92,5.034147,5.034147,7.011362,90.0,90.0,90.0
1999,Hf4I16,2.3475,15,8.885644,8.885644,13.28417,72.54959,72.54959,89.50984
2000,Cd1Te1,0.7092,216,4.66796,4.66796,4.66796,60.0,60.0,60.0
2001,Cl18U3,2.3712,164,11.9435,11.94349,6.550002,90.00248,89.99731,119.9991
2002,F3Sc1,6.5705,221,4.123669,4.123669,4.123669,90.0,90.0,90.0
2003,Ca1Te1,1.54,225,4.516,4.516,4.516,60.0,60.0,60.0
2004,N4S4,3.0634,14,4.159932,4.532948,8.7596,76.05042,90.0,90.0
2005,As2F10,4.5671,194,5.945492,5.945492,6.588789,90.0,90.0,120.0014
2006,O16Si8,6.1849,227,10.81098,10.81098,10.81098,60.0,60.0,60.0
2007,N8Si6,4.242,176,7.661595,7.661607,2.9258129999999998,90.0,90.0,119.9984
2008,Cd1S1,1.1886,216,4.181978,4.181978,4.181978,60.0,60.0,60.0
2009,F2Pb1,4.3968,225,4.238241,4.238241,4.238241,60.0,60.0,60.0
2010,N16S16,1.0371,14,9.476746,9.676629,9.668075,114.219,90.0,90.0
2011,F2Pb1,4.3968,225,4.240418,4.240418,4.240418,60.0,60.0,60.0
2012,Co9S8,0.7039000000000001,225,7.71356,7.71356,7.71356,60.0,60.0,60.0
2013,Mn1S1,0.8183,225,3.7358190000000002,3.7358190000000002,3.7358190000000002,60.0,60.0,60.0
2014,P32Sr24,0.8875000000000001,43,5.871648,14.37404,17.46423,90.00175,90.0,90.0
2015,Fe4Si4,0.8703000000000001,198,4.422519,4.422519,4.422519,90.0,90.0,90.0
2016,O16Si8,5.3065,118,6.915021,6.915021,7.149137,90.0,90.0,90.0
2017,I1Na1,3.6192,225,4.589319,4.589319,4.589319,60.0,60.0,60.0
2018,O9Pm6,3.7054,12,7.457641,7.457641,8.967995,80.04907,80.04907,28.40687
2019,Na2Te1,2.0595,225,5.161881,5.161881,5.161881,60.0,60.0,60.0
2020,O16Sb8,1.8944,33,4.914936,5.537153,11.92438,90.0,90.0,89.99993
2021,O24Si12,4.042,163,8.293043,8.293043,7.542669,90.0,90.0,120.0
2022,Cd4I8,2.4314999999999998,160,30.09643,30.09643,30.09643,8.223229,8.223229,8.223229
2023,As8Na8,0.7085,14,5.925949,6.264975,10.39082,84.38045,90.0,90.0
2024,F1Na1,6.135,225,3.313302,3.313302,3.313302,60.0,60.0,60.0
2025,B12P2,2.4881,166,5.251488,5.251488,5.251488,69.57479,69.57479,69.57479
2026,O24Yb16,0.39430000000000004,206,9.006909,9.006909,9.006909,109.4712,109.4712,109.4712
2027,Co2F4,4.2176,136,4.757458,4.757458,3.201574,90.0,90.0,90.0
2028,O6Ti4,0.8432000000000001,167,5.4914819999999995,5.4914819999999995,5.4914819999999995,57.68743,57.68743,57.68743
2029,C2S4,3.4898,64,4.74023,4.74023,10.30408,90.0,90.0,101.6369
2030,Cl6Tb2,3.8079,63,6.9281,6.9281,8.575733,90.0,90.0,147.9162
2031,Al2N2,4.0474,186,3.129355,3.129599,5.006125,90.0,90.0,119.9974
2032,Ag1I1,0.3946,221,3.8564410000000002,3.8564410000000002,3.8564410000000002,90.0,90.0,90.0
2033,Sb8Se12,0.7541,62,4.031354,11.546990000000001,12.81191,90.0,90.0,90.0
2034,O8V4,0.7265,87,6.353913,6.353996,6.354378,95.39579,95.39449,144.2887
2035,Cr4O6,2.3688000000000002,167,5.452239,5.452239,5.452239,55.68089,55.68089,55.68089
2036,Fe2Se2,0.5115000000000001,129,4.263198,4.263198,5.404622,90.0,90.0,90.0
2037,O6Si3,5.7011,154,4.992622,4.992745,5.486561,90.00087,89.99982,120.0003
2038,Br1K1,3.8802000000000003,221,4.042034,4.042034,4.042034,90.0,90.0,90.0
2039,Rb16Sn16,0.7305,142,12.9639,12.9639,12.9639,125.0178,125.0178,81.50853
2040,N8Si6,4.2563,176,7.659816,7.659562,2.923095,90.0,90.0,120.0015
2041,O2Th1,4.5403,225,4.119894,4.119894,4.119894,60.0,60.0,60.0
2042,S20U12,0.1806,62,7.602195,8.188657,12.03337,89.98831,89.98723,89.99939
2043,Mn2P8,0.989,2,5.894742,5.13823,5.8628219999999995,86.2942,110.9625,115.6176
2044,O8Zr4,3.474,14,5.284277,5.217529,5.400856,80.40656,90.0,90.0
2045,O6Si3,5.7176,154,4.984195,4.984275,5.478616,89.99991,89.99993,120.0002
2046,Se20U12,0.582,62,7.953069,8.539,12.56628,90.0,90.0,90.0
2047,Hf2N4,0.5872,194,3.260373,3.260373,7.599055,90.0,90.0,120.001
2048,C4Ca2,2.2296,12,4.108882,4.108882,7.392156,74.85033,74.85033,55.80187
2049,Hg3Te3,0.255,152,4.656607,4.656587,10.39773,90.00011,89.99959,120.0008
2050,F1Li1,8.7255,225,2.886508,2.886508,2.886508,60.0,60.0,60.0
2051,Ba8Pb4,0.029900000000000003,62,5.805968,8.811757,10.80879,90.0,90.0,90.0
2052,Se2Ti1,0.0233,164,3.624336,3.624336,6.301507,90.00394,89.99606,120.0004
2053,Se4W2,1.2233,194,3.332285,3.332111,13.88193,90.0,90.0,120.0017
2054,Co6O8,0.32380000000000003,227,5.972785,5.972785,5.972785,60.0,60.0,60.0
2055,S2Ti1,0.5346000000000001,164,3.4749879999999997,3.474934,6.190807,90.00125,90.0,120.0005
2056,Ni1O1,1.7919,225,2.988928,2.988928,2.988928,60.0,60.0,60.0
2057,Ca4H8,3.0131,62,3.560415,5.874039,6.748725,90.0,90.0,90.0
2058,O16U6,1.5237,63,6.870366,6.870366,8.402052,90.0,90.0,118.1079
2059,F4Ni2,4.0087,136,4.706544,4.706544,3.114348,90.0,90.0,90.0
2060,O2Zn2,1.8221,186,3.197394,3.197394,5.131885,90.0,90.0,119.9965
2061,O8Si4,5.5366,92,5.042883,5.042883,7.036047,90.0,90.0,90.0
2062,O4Ti2,2.267,136,4.672624,4.672624,3.023012,90.0,90.0,90.0
2063,Mg1S1,2.7702999999999998,225,3.6932359999999997,3.6932359999999997,3.6932359999999997,60.0,60.0,60.0
2064,O16Si8,5.5555,15,7.229566,7.229566,7.2225719999999995,75.69509,75.69509,120.0712
2065,Ir4Sb8,0.36160000000000003,14,6.614588,6.670686,6.763009,64.80103,90.0,90.0
2066,N8O12,1.1152,19,5.425714,6.576339,9.570492,90.0,90.0,90.0
2067,Cl18In10,3.0083,167,9.652689,9.652689,9.652689,81.25461,81.25461,81.25461
2068,S4V3,0.5706,12,3.579093,3.579093,11.95528,91.25638,91.25638,60.17927
2069,Pd4S8,0.6337,61,5.512291,5.598302,8.154317,90.0,90.0,90.0
2070,O4Ti2,2.2627,136,4.669545,4.669545,3.023668,90.0,90.0,90.0
2071,Cr12S18,0.0989,148,6.107147,6.10714,17.17116,90.00019,90.00004,120.0007
2072,F4V2,1.7057,136,4.893013,4.893013,3.310623,90.0,90.0,90.0
2073,F24Ge10,3.8947000000000003,14,7.064137,9.657636,10.36715,85.38079,90.0,90.0
2074,F2Sr1,6.7798,225,4.140162,4.140162,4.140162,60.0,60.0,60.0
2075,Os2P4,0.9186000000000001,58,2.948972,5.117797,5.9441749999999995,90.0,90.0,90.0
2076,O4Ti2,2.2633,136,4.671777,4.671777,3.023861,90.0,90.0,90.0
2077,O6Si3,5.7172,152,4.9807559999999995,4.980842,5.479272,90.00092,89.9981,120.0022
2078,Ca2N12,3.5051,70,8.002626,6.456608,6.329558,77.4868,51.96609,50.54711
2079,O36V16,0.354,8,6.729387,6.729387,17.24371,90.79706,90.79706,103.9717
2080,Ir4Sb8,0.354,14,6.614938,6.670298,6.761769,64.79719,90.0,90.0
2081,Se2Sn2,0.3608,63,6.448086,6.448086,4.338254,90.0,90.0,140.8144
2082,Cd2Se2,0.6895,186,4.373325,4.373325,7.13443,90.0,90.0,119.9943
2083,Cl6Tb2,3.7984999999999998,63,6.884761,6.884761,8.576524,90.0,90.0,147.7068
2084,O16Se8,3.2685,135,8.707605,8.707605,5.209077,90.0,90.0,90.0
2085,Cl18Fe6,1.9741,149,6.184848,6.184848,19.1257,90.00768,90.00768,119.9845
2086,S2Zn2,2.7408,186,3.7956659999999998,3.795428,6.219503,90.0,90.0,120.0021
2087,Ba1O1,2.0915,225,3.970583,3.970583,3.970583,60.0,60.0,60.0
2088,Ca1O1,3.6357,225,3.4225339999999997,3.4225339999999997,3.4225339999999997,60.0,60.0,60.0
2089,Cd2Se2,0.6898000000000001,186,4.373414,4.373414,7.134255,90.0,90.0,119.9944
2090,Te1Zn1,1.4778,216,4.341179,4.341179,4.341179,60.0,60.0,60.0
2091,Pb1Te1,0.7988000000000001,225,4.636535,4.636535,4.636535,60.0,60.0,60.0
2092,Ge1Te1,0.7311000000000001,160,4.356457,4.356457,4.356457,57.96513,57.96513,57.96513
2093,In16O24,1.1202,206,8.866893,8.866893,8.866893,109.4712,109.4712,109.4712
2094,Ce8S16,0.3473,33,4.129213,8.12963,16.40787,90.0,90.0,90.0
2095,I12Zr4,0.09570000000000001,59,6.680573,7.911118,13.69601,90.0,90.0,90.0
2096,Mg12O12,2.7381,8,12.89357,12.89357,7.57724,85.65641,85.65641,15.47961
2097,F6Ti2,2.0777,167,5.511134,5.511134,5.511134,60.90365,60.90365,60.90365
2098,C2F8,9.0627,15,4.890453,4.890453,8.698654,63.90132,63.90132,54.20933
2099,Be2Cl4,6.2814,72,6.746173,6.746173,6.746173,134.2866,128.2322,71.51248
2100,O24Y16,4.0618,206,9.266482,9.266482,9.266482,109.4712,109.4712,109.4712
2101,Al2F6,7.6448,167,5.102338,5.102338,5.102338,58.68971,58.68971,58.68971
2102,Ge16Sr8,0.3119,62,6.587152,8.787089,11.23157,90.0,90.0,90.0
2103,Se2Zr1,0.31820000000000004,164,3.806272,3.806272,6.529706,90.00309,89.99691,119.9997
2104,P16Zn8,0.7775000000000001,14,7.297822,7.578582,8.849385,77.59429,90.0,90.0
2105,Cd2P8,0.6264000000000001,14,5.188817,5.322474,7.695093,80.94468,90.0,90.0
2106,N16Si12,4.652,159,7.808482,7.808482,5.658814,90.0,90.00001,120.0
2107,Ni1O1,1.7913000000000001,225,2.988644,2.988644,2.988644,60.0,60.0,60.0
2108,O12Pb8,0.9187000000000001,14,6.989071,7.488378,7.913145,80.28928,90.0,90.0
2109,Ho8S12,0.6135,62,3.8532,10.44067,10.61011,90.0,90.0,90.0
2110,O8Si4,4.0065,205,4.486775,4.486775,4.486775,90.0,90.0,90.0
2111,O4Ti2,2.262,136,4.671876,4.671876,3.023916,90.0,90.0,90.0
2112,Ca1O1,3.6358,225,3.422562,3.422562,3.422562,60.0,60.0,60.0
2113,C60Rb6,0.6934,204,10.15456,10.15456,10.15456,109.4712,109.4712,109.4712
2114,Br6La2,1.3504,176,8.214289,8.214289,8.879828,90.0,90.0,120.0
2115,As8O16,3.3407999999999998,62,5.322291,7.512116,8.973733,90.0,90.0,90.0
2116,Bi2Se3,0.3901,166,10.20175,10.20175,10.20175,23.72307,23.72307,23.72307
2117,Ni2S2,0.2343,186,3.52789,3.528003,5.675786,90.0,90.0,120.0011
2118,C4O8,6.429,92,5.179036,5.179036,7.717359,90.0,90.0,90.0
2119,O4V2,0.7246,136,4.51244,4.51244,3.029665,90.0,90.0,90.0
2120,Cd14P20,1.1177,43,18.44951,14.3329,12.04628,88.31393,50.94443,40.74164
2121,Pb1S1,0.46540000000000004,225,4.246202,4.246202,4.246202,60.0,60.0,60.0
2122,O1Yb1,1.0551,225,3.443548,3.443548,3.443548,60.0,60.0,60.0
2123,Li6N2,1.221,194,3.564825,3.564825,6.356005,90.0,90.0,120.0034
2124,O6V4,0.0361,167,5.5597829999999995,5.5597829999999995,5.5597829999999995,54.7947,54.7947,54.7947
2125,B4N4,3.5412,9,4.993461,4.993469,4.349804,84.84762,84.84996,141.6075
2126,C6S16,1.7013,2,4.924061,9.389396,12.47137,100.7403,98.09881,89.82771
2127,O8Ti4,1.8203,11,3.957917,6.196917,11.50801,87.81063,90.0,90.0
2128,Al4Se6,1.7565,9,6.873286,6.873286,7.443478,63.42526,63.42526,59.46971
2129,Ho16O24,3.9450000000000003,206,9.188104,9.188104,9.188104,109.4712,109.4712,109.4712
2130,Ca3N2,1.4142000000000001,164,3.8527709999999997,3.8527709999999997,6.937356,89.99997,90.00003,120.0007
2131,Bi2Te3,0.2936,166,10.637550000000001,10.637550000000001,10.637550000000001,24.18735,24.18735,24.18735
2132,Cl8Pb4,3.8064,62,4.600122,7.776457,9.323933,90.0,90.0,90.0
2133,Ge32Rb32,1.0515,218,13.33654,13.33654,13.33654,90.0,90.0,90.0
2134,O8Si4,5.5753,5,5.179308,5.179308,6.801889,81.75103,81.75103,96.33659
2135,Cd1Te1,0.7048,216,4.670128,4.670128,4.670128,60.0,60.0,60.0
2136,Cl1Tl1,2.1725,221,3.896961,3.896961,3.896961,90.0,90.0,90.0
2137,Br2In2,1.1629,63,6.667175,6.667175,4.658246,90.0,90.0,139.902
2138,O32Si16,5.6946,2,11.55561,11.67173,7.485749,94.72438,96.17587,104.8537
2139,F3Sc1,6.5706,221,4.123688,4.123688,4.123688,90.0,90.0,90.0
2140,O6Rh4,1.7278,167,5.579643,5.579643,5.579643,55.64556,55.64556,55.64556
2141,Fe2Te4,0.6969000000000001,58,3.970713,5.323276,6.397384,90.0,90.0,90.0
2142,S8Zn8,2.6921,186,3.798609,3.798532,24.82325,90.0,90.0,120.0007
2143,In4S6,0.3956,167,7.082506,7.082506,7.082506,55.93112,55.93112,55.93112
2144,S6U2,1.5102,11,4.002874,5.466489,9.55741,96.11886,90.0,90.0
2145,Cr4O6,2.3727,167,5.448368,5.448368,5.448368,55.70474,55.70474,55.70474
2146,Ca1S1,2.3812,225,4.041904,4.041904,4.041904,60.0,60.0,60.0
2147,Ca4H8,3.0135,62,3.56243,5.879971,6.754348,90.0,90.0,90.0
2148,N8Si6,4.2453,176,7.658152,7.658172,2.925276,90.0,90.0,119.9992
2149,Rb4Te2,1.3738000000000001,194,6.146701,6.146361,8.114262,90.0,90.0,120.0018
2150,Ag2I2,1.9987,186,4.70285,4.702138,7.71101,90.0,90.0,120.005
2151,Bi2I6,2.5056000000000003,148,7.782498,7.784812,8.740184,63.56365,63.54882,59.97335
2152,Cu1I1,1.6513,216,4.304962,4.304962,4.304962,60.0,60.0,60.0
2153,N4O10,0.6579,194,5.555938,5.555938,6.668052,90.0,90.0,120.0025
2154,Ag4O2,0.0868,224,4.879691,4.879691,4.879691,90.0,90.0,90.0
2155,S4Sn4,0.9657,62,4.061673,4.493982,11.59601,90.0,90.0,90.0
2156,Cd5I10,2.3999,164,4.31383,4.313804,36.3048,90.00237,90.0,120.0002
2157,O4Ti2,2.5641,141,5.5934349999999995,5.5934349999999995,5.5934349999999995,139.6096,139.6096,58.44655
2158,Ru4Se8,0.8637,205,6.021285,6.021285,6.021285,90.0,90.0,90.0
2159,Pb1Te1,0.7989,225,4.636529,4.636529,4.636529,60.0,60.0,60.0
2160,O6V4,0.0346,167,5.558973,5.558973,5.558973,54.8115,54.8115,54.8115
2161,Ge2O4,1.1621,136,2.912472,4.484086,4.483891,90.0,90.0,90.0
2162,Cl2Hg2,2.5722,139,6.450109,6.450109,6.450109,137.231,137.231,62.08278
2163,Ga4Se4,0.9028,187,3.806911,3.806996,16.48944,90.0,90.0,120.0007
2164,F6La2,6.9891000000000005,59,4.117303,5.216638,5.203783,90.0,90.0,90.0
2165,Cr4O6,2.3736,167,5.450741,5.450741,5.450741,55.67002,55.67002,55.67002
2166,S4V4,0.29510000000000003,62,3.548043,6.616457,6.076825,90.0,90.0,90.0
2167,O6Si3,5.7067,154,4.976358,4.9769000000000005,5.477412,89.99644,90.00719,120.0116
2168,S9Tl18,0.7344,146,9.645146,9.645135,9.646573,81.78961,81.78525,81.78104
2169,N16Si12,4.648,159,7.808691,7.808713,5.658326,90.00002,89.99995,119.9999
2170,Cl2In2,1.3026,63,6.560075,6.560075,4.506396,90.0,90.0,140.8885
2171,F12Ho4,7.7094000000000005,62,4.480725,6.322233,6.8968,90.0,90.0,90.0
2172,Sb8Zn8,0.1643,61,6.226237,7.809363,8.181992,90.0,90.0,90.0
2173,Ag1I1,1.4685000000000001,225,4.359113,4.359113,4.359113,60.0,60.0,60.0
2174,F1Na1,6.157,225,3.308645,3.308645,3.308645,60.0,60.0,60.0
2175,Ge4Sr8,0.377,62,5.198991,8.163359,9.622016,90.0,90.0,90.0
2176,O8Si4,5.5415,92,5.029163,5.029163,6.9773689999999995,90.0,90.0,90.0
2177,Cd11I22,2.3679,156,4.310886,4.310856,79.8335,90.00238,90.0,120.0002
2178,N6O12,2.8109,204,7.097221,7.097221,7.097221,109.4712,109.4712,109.4712
2179,Er16O24,3.9598,206,9.137613,9.137613,9.137613,109.4712,109.4712,109.4712
2180,Al1N1,4.4287,225,2.876737,2.876737,2.876737,60.0,60.0,60.0
2181,N8Si6,4.2529,176,7.660968,7.660919,2.92436,90.0,90.0,119.9999
2182,Fe4Si4,0.8712000000000001,198,4.422975,4.422975,4.422975,90.0,90.0,90.0
2183,Cl18U3,2.3579,164,11.87351,11.87351,6.504465,90.00093,89.99907,120.0007
2184,S2Sn2,1.1794,63,6.441356,6.441356,5.840746,90.0,90.0,145.2604
2185,O8Ti4,3.0962,12,6.5190719999999995,6.5190719999999995,6.626104,74.02787,74.02787,34.26451
2186,Br4Ca2,4.4892,58,4.402333,6.763939,6.9190059999999995,90.0,90.0,90.0
2187,S24Zn24,2.6821,156,3.798604,3.798611,74.48085,90.0,90.0,119.9999
2188,S14Zn14,2.6882,156,3.798998,3.798939,43.46346,90.0,90.0,120.0005
2189,Br1K1,4.3272,225,4.737012,4.737012,4.737012,60.0,60.0,60.0
2190,O12Si6,4.1871,148,6.045669,6.045637,6.045698,87.97873,87.97888,87.97917
2191,Bi8O12,1.5887,159,7.897635,7.897635,6.165858,90.0,90.0,120.0
2192,Eu1S1,0.7189,225,4.24511,4.24511,4.24511,60.0,60.0,60.0
2193,As8Li8,0.3844,14,5.275783,5.839161,9.540474,85.2668,90.0,90.0
2194,Cl6Cr2,2.4097,12,6.120107,6.120107,6.636505,81.4935,81.4935,120.0593
2195,La2O3,3.7676,164,3.981792,3.982188,6.254955,90.00195,90.0,119.9967
2196,Rb8Te4,1.7238,62,5.641837,9.17435,11.07436,90.0,90.0,90.0
2197,Cr4O6,2.3768000000000002,167,5.450411,5.450411,5.450411,55.63395,55.63395,55.63395
2198,O8Si4,5.3777,20,5.263186,5.263186,8.539001,90.0,90.0,120.4413
2199,Se1Zn1,1.6875,216,4.013573,4.013573,4.013573,60.0,60.0,60.0
2200,Ir4Sb8,0.36,14,6.615085,6.668505,6.758209,64.82359,90.0,90.0
2201,Ge4O8,1.4666000000000001,60,5.408618,4.378582,4.842919,90.0,90.0,90.0
2202,Cl1Na1,5.0544,225,4.006513,4.006513,4.006513,60.0,60.0,60.0
2203,Mn4S8,1.2337,205,5.64802,5.64802,5.64802,90.0,90.0,90.0
2204,S3Ti3,0.15510000000000002,166,9.841576,9.841576,9.841576,21.79016,21.79016,21.79016
2205,Hg3S3,1.4291,152,4.34583,4.345894,9.634474,89.99954,89.99918,120.0001
2206,Co6O8,0.3098,227,5.961575,5.961575,5.961575,60.0,60.0,60.0
2207,As2Li6,0.6397,194,4.376474,4.376474,7.814978,90.0,90.0,120.0042
2208,O34Ti18,1.1789,2,5.659109,7.268218,15.03461,96.28474,90.01975,108.5738
2209,O6Si3,5.7059999999999995,152,4.974167,4.975386,5.494226,89.99594,90.00276,120.0114
2210,O4Si2,5.0102,136,4.23168,4.23168,2.693418,90.0,90.0,90.0
2211,O6V4,0.0334,167,5.559884,5.559884,5.559884,54.79895,54.79895,54.79895
2212,O4Zr2,3.8805,137,3.645514,3.645514,5.306268,90.0,90.0,90.0
2213,Ir4P8,0.5098,14,5.819198,5.767779,5.877527,68.57842,89.99993,89.99997
2214,H4Mg2,3.7724,136,4.49425,4.49425,2.988678,90.0,90.0,90.0
2215,Mn12O16,0.38180000000000003,57,3.069905,9.749346,10.03511,90.0,90.0,90.0
2216,C10Si10,2.0048,156,3.094106,3.094097,25.30947,89.99998,90.0,120.0001
2217,Cd1Te1,0.7091000000000001,216,4.667967,4.667967,4.667967,60.0,60.0,60.0
2218,O2Zr1,3.1237,225,3.6422470000000002,3.6422470000000002,3.6422470000000002,60.0,60.0,60.0
2219,O32Si16,5.5495,21,13.24215,13.24215,5.205149,90.0,90.0,100.6092
2220,Mg1O1,4.4688,225,3.007279,3.007279,3.007279,60.0,60.0,60.0
2221,O8Si4,5.5312,92,5.054193,5.054193,7.055129,90.0,90.0,90.0
2222,Co6O8,0.3254,227,5.974071,5.974071,5.974071,60.0,60.0,60.0
2223,C2Si2,2.3046,186,3.091813,3.091813,5.072758,90.0,90.0,119.9962
2224,O16Si8,5.5268,198,7.310699,7.310699,7.310699,90.0,90.0,90.0
2225,Fe4S8,2.0165,205,5.521826,5.521826,5.521826,90.0,90.0,90.0
2226,B2Br6,3.7800000000000002,176,6.857366,6.85641,7.904478,90.0,90.0,119.9997
2227,Ni1O1,1.7915,225,2.988731,2.988731,2.988731,60.0,60.0,60.0
2228,Pd4Se8,0.48910000000000003,61,5.787965,5.9340209999999995,8.244691,90.0,90.0,90.0
2229,Cr4F16,1.5017,136,8.605599,8.605599,3.863836,90.0,90.0,90.0
2230,Mg4Te8,1.1052,205,7.105152,7.105152,7.105152,90.0,90.0,90.0