,full_formula,band_gap,spacegroup.number,structure.lattice.a,structure.lattice.b,structure.lattice.c,structure.lattice.alpha,structure.lattice.beta,structure.lattice.gamma
3066,Ge4Sr8,0.3744,62,5.191165,8.176434,9.639457,90.0,90.0,90.0
3067,O4Ti2,2.5661,141,5.594009,5.594009,5.594009,139.6237,139.6237,58.4251
3068,F3La1,5.5123,139,4.111403,4.111403,4.111403,115.7843,115.7659,97.48812
3069,Cs4O4,1.6429,71,4.40111,6.575289,7.6258859999999995,90.0,90.0,90.0
3070,Al4O6,5.8491,167,5.180733,5.180733,5.180733,55.30062,55.30062,55.30062
3071,N2U1,0.7669,225,3.7674700000000003,3.7674700000000003,3.7674700000000003,60.0,60.0,60.0
3072,Cl6Nd2,2.919,11,7.568039,7.546566,4.280477,90.0,90.0,120.0198
3073,N6Rb2,4.1718,140,5.947265,5.947265,5.947265,114.6131,114.6131,99.61478
3074,Br1Rb1,4.2226,225,4.948185,4.948185,4.948185,60.0,60.0,60.0
3075,Fe8S8,0.4051,63,7.280042,7.280042,6.000828,90.0,90.0,120.4465
3076,Cd13I26,2.2481,156,4.313499,4.31348,94.14056,90.00013,90.0,120.0001
3077,Cl1K1,4.8933,221,3.810627,3.810627,3.810627,90.0,90.0,90.0
3078,Cl18W6,0.2619,148,9.597531,9.597531,9.597531,110.3557,110.3557,110.3557
3079,N8Se8,1.9741,15,7.322881,7.322881,6.825358,80.37547,80.37547,90.24123
3080,Br14In8,2.2713,166,7.751259,7.750648,16.43195,76.38641,76.39583,60.00928
3081,Fe4S8,2.0113,205,5.521363,5.521363,5.521363,90.0,90.0,90.0
3082,As8S8,2.0348,15,7.272148,7.272148,9.554885,81.00454,81.00454,85.19481
3083,O12Si6,5.5801,148,7.702856,7.702856,7.702856,110.4963,110.4963,110.4963
3084,B12O2,1.8581,166,5.153043,5.153043,5.153043,63.08805,63.08805,63.08805
3085,S2Ti1,0.6384000000000001,12,3.481368,3.481368,8.781476,78.95015,78.95015,59.98996
3086,Cr4O6,2.3716,167,5.449845,5.449845,5.449845,55.67535,55.67535,55.67535
3087,Rb4Te2,1.3732,194,6.1468869999999995,6.147043,8.113287,90.0,90.0,120.0008
3088,Cs2N6,4.1845,140,6.265575,6.265575,6.265575,116.106,116.106,96.88835
3089,O20P8,5.5245,161,7.661791,7.661791,7.661791,87.60075,87.60075,87.60075
3090,O6Si3,5.7084,154,4.988616,4.988616,5.503808,89.99991,90.00023,120.0003
3091,O2Zn2,1.8101,186,3.193857,3.193857,5.149565,90.0,90.0,119.996
3092,Ga2N2,1.9143,186,3.204307,3.204284,5.217641,90.0,90.0,120.0002
3093,As1Ga1,0.2947,216,4.05538,4.05538,4.05538,60.0,60.0,60.0
3094,F12Tb4,7.733,62,4.463514,6.450147,6.965965,90.0,90.0,90.0
3095,Cd1Se1,0.6412,216,4.370451,4.370451,4.370451,60.0,60.0,60.0
3096,F2Sr1,6.7793,225,4.140276,4.140276,4.140276,60.0,60.0,60.0
3097,Gd16O24,3.6152,206,9.421656,9.421656,9.421656,109.4712,109.4712,109.4712
3098,C7Si7,1.8559,160,17.80012,17.80011,17.80012,9.973921,9.973995,9.973921
3099,Br6La2,3.5699,176,8.151706,8.150158,4.553501,90.0,90.0,119.9987
3100,O6Si3,5.6772,154,5.019555,5.020003,5.503486,90.00195,89.99873,119.9958
3101,Cu4P40,1.1804000000000001,2,7.275062,12.00439,12.4777,64.60073,83.30713,83.64896
3102,B1N1,4.4568,216,2.56298,2.56298,2.56298,60.0,60.0,60.0
3103,Cr8O21,1.5609000000000002,2,5.523973,12.44162,6.708271,74.04757,78.22494,84.23375
3104,Mn16Si28,0.8793000000000001,116,5.483156,5.483156,17.31728,90.0,90.0,90.0
3105,Cd14I28,2.2452,156,4.313567,4.313542,101.9127,90.00174,90.0,120.0002
3106,Mn1Te1,1.0463,216,4.585472,4.585472,4.585472,60.0,60.0,60.0
3107,I1Na1,3.6184000000000003,225,4.589742,4.589742,4.589742,60.0,60.0,60.0
3108,Cu3N1,0.5235000000000001,221,3.82299,3.82299,3.82299,90.0,90.0,90.0
3109,O8Zr4,2.851,62,3.386062,5.6341660000000005,6.582642,90.0,90.0,90.0
3110,Rb4Te2,1.3659,194,6.153052,6.153052,8.107628,90.0,90.0,119.9976
3111,Cd2Se2,0.6865,186,4.370993,4.370993,7.141076,90.0,90.0,119.9936
3112,Br1Rb1,4.2135,225,4.954476,4.954476,4.954476,60.0,60.0,60.0
3113,Br1K1,3.9233000000000002,221,4.023176,4.023176,4.023176,90.0,90.0,90.0
3114,O4Si2,5.0149,136,4.23233,4.23233,2.6928609999999997,90.0,90.0,90.0
3115,Ir4P8,0.5117,14,5.821271,5.770777,5.876516,68.53244,90.0,90.0
3116,N6Tl2,1.8027000000000002,140,5.833696,5.833696,5.833696,114.1641,114.1641,100.4454
3117,P4Ru2,0.462,58,2.897888,5.127867,5.936751,90.0,90.0,90.0
3118,Cl8I8,1.8571,14,5.30085,11.73524,12.83022,67.35571,90.0,90.0
3119,Mg1O1,4.4694,225,3.007215,3.007215,3.007215,60.0,60.0,60.0
3120,Ge16Sr8,0.3574,62,6.572333,8.798308,11.20838,90.0,90.0,90.0
3121,Bi1F3,3.9498,225,4.093906,4.093906,4.093906,60.0,60.0,60.0
3122,Pb1Te1,0.7988000000000001,225,4.636535,4.636535,4.636535,60.0,60.0,60.0
3123,P8Pt4,0.876,205,5.740852,5.740852,5.740852,90.0,90.0,90.0
3124,Br2Hg2,2.0727,139,6.621917,6.621917,6.621917,136.9891,136.9891,62.45475
3125,Au1Cs1,0.7526,221,4.329123,4.329123,4.329123,90.0,90.0,90.0
3126,Al4O6,5.8496,167,5.180678,5.180678,5.180678,55.29882,55.29882,55.29882
3127,O8Si4,4.0031,205,4.487554,4.487554,4.487554,90.0,90.0,90.0
3128,I4P2,1.9243000000000001,2,5.033682,7.562376,7.59776,80.18322,78.4351,74.49687
3129,Os2P8,0.7522000000000001,14,4.712124,4.730319,7.160883,80.4643,90.0,90.0
3130,O8Si4,5.6112,15,5.139832,5.139832,8.812913,70.46097,70.46097,57.44208
3131,F6Fe2,2.6693,167,5.459497,5.459497,5.459497,57.9919,57.9919,57.9919
3132,C8Ca4,1.9925000000000002,2,8.29942,4.054152,11.4148,85.17156,84.49658,80.45871
3133,S4W2,1.2875,194,3.206246,3.206127,13.2023,90.0,90.0,119.9988
3134,I1Tl1,1.7852999999999999,221,4.268474,4.268474,4.268474,90.0,90.0,90.0
3135,Cs1F1,5.277,225,4.320857,4.320857,4.320857,60.0,60.0,60.0
3136,S1Zn1,2.6632,160,3.793568,3.793568,3.793568,60.13707,60.13707,60.13707
3137,I2Tl2,2.1301,63,7.086082,7.086082,5.259594,90.0,90.0,141.0968
3138,Bi12O18,1.7808000000000002,197,10.05203,10.05203,10.05203,109.4712,109.4712,109.4712
3139,Cd9I18,2.3434,156,4.312577,4.312545,65.34306,89.99919,90.0,120.0004
3140,Ag2I2,2.0015,186,4.700601,4.700601,7.685982,90.0,90.0,119.994
3141,Cu8O6,0.0653,141,6.476582,6.476582,6.476582,126.0993,126.0993,79.72492
3142,Bi2Te3,0.3134,166,10.67916,10.67916,10.67916,24.08735,24.08735,24.08735
3143,O4Zr2,3.8908,137,3.644503,3.644503,5.312938,90.0,90.0,90.0
3144,Br1Rb1,4.2223,225,4.94846,4.94846,4.94846,60.0,60.0,60.0
3145,F3Sc1,6.5706,221,4.123685,4.123685,4.123685,90.0,90.0,90.0
3146,Br2Mg1,4.3936,164,3.875568,3.875568,6.590393,90.00374,89.99626,120.0046
3147,Co2F4,4.2061,136,4.760414,4.760414,3.211457,90.0,90.0,90.0
3148,S1Yb1,1.1889,225,4.042432,4.042432,4.042432,60.0,60.0,60.0
3149,Be3F6,8.0938,180,4.915921,4.915921,5.382781,90.0,90.0,120.0
3150,Ce2O4,1.1344,164,3.854612,3.8550079999999998,5.888654,90.00003,90.0,119.9966
3151,F14I2,1.4673,41,5.645384,5.645384,9.117015,90.0,90.0,110.6303
3152,N2W1,1.038,187,2.943699,2.943699,3.9218919999999997,90.0,90.0,120.0004
3153,Er16O24,3.9639,206,9.131767,9.131767,9.131767,109.4712,109.4712,109.4712
3154,O8Si4,5.5491,92,5.028262,5.028262,6.978102,90.0,90.0,90.0
3155,Gd16O24,3.6224,206,9.418668,9.418668,9.418668,109.4712,109.4712,109.4712
3156,Ge4Se4,0.7919,62,3.894838,4.470371,11.01331,90.0,90.0,90.0
3157,H24O12,5.5489,19,8.119076,3.975224,8.332578,90.00952,90.00139,90.01213
3158,Cl16Pb8,3.172,2,6.9355709999999995,12.18184,10.27921,85.38228,103.1273,95.93774
3159,Se4Si2,2.0226,72,6.896794,6.896794,6.896794,129.124,126.1956,77.20023
3160,Gd16O24,3.6101,206,9.419703,9.419703,9.419703,109.4712,109.4712,109.4712
3161,S6Zn6,2.6975,186,3.797762,3.797762,18.62281,90.0,90.0,120.0006
3162,Bi4O6,2.3857,160,5.787837,5.787837,5.787837,88.71733,88.71733,88.71733
3163,Fe4O6,0.2569,167,5.083779,5.083779,5.083779,58.33674,58.33674,58.33674
3164,Al2N2,4.0546,186,3.129214,3.129001,5.014974,90.0,90.0,120.0023
3165,Se4Sn4,0.6671,62,4.278439,4.550516,11.94695,90.0,90.0,90.0
3166,Ca9N6,1.3649,12,7.761578,7.761578,9.378799,79.74246,79.74246,28.24086
3167,Cd1Te1,0.7092,216,4.667933,4.667933,4.667933,60.0,60.0,60.0
3168,O4Si2,5.015,136,4.231192,4.231192,2.693202,90.0,90.0,90.0
3169,Fe2Se2,0.5085000000000001,129,4.251928,4.251928,5.435557,90.0,90.0,89.97472
3170,Dy16O24,3.9277,206,9.244577,9.244577,9.244577,109.4712,109.4712,109.4712
3171,Ba1C2,1.6396000000000002,139,4.802667,4.802667,4.802667,125.0888,125.0888,81.39097
3172,Ca4H8,3.0279,62,3.5544919999999998,5.872001,6.745117,90.0,90.0,90.0
3173,Fe4S8,2.0174,205,5.521827,5.521827,5.521827,90.0,90.0,90.0
3174,O4Ti2,2.2621,136,4.67238,4.67238,3.02415,90.0,90.0,90.0
3175,Os2Sb4,0.46330000000000005,58,3.249039,5.999236,6.77189,90.0,90.0,90.0
3176,La2O3,3.7576,164,3.987796,3.987796,6.247638,89.99639,90.00361,119.9952
3177,Pd8S8,0.27040000000000003,84,6.516313,6.516313,6.679072,90.0,90.0,90.0
3178,O6Ti3,3.8301,152,5.653062,5.652878,6.172944,89.99959,89.9963,120.0008
3179,O24Si12,5.656,230,8.854275,8.854275,8.854275,109.4712,109.4712,109.4712
3180,O36Si18,5.4335,63,10.24041,10.24041,14.13838,90.0,90.0,136.6447
3181,Li6N2,1.2203,194,3.562715,3.562715,6.354722,90.0,90.0,120.0037
3182,Ge1Se1,0.041,225,4.006351,4.006351,4.006351,60.0,60.0,60.0
3183,Se2Zr1,0.3199,164,3.806785,3.806785,6.527535,90.00285,89.99715,119.9995
3184,Fe4Si4,0.8705,198,4.422741,4.422741,4.422741,90.0,90.0,90.0
3185,Pb1Te1,0.7988000000000001,225,4.636535,4.636535,4.636535,60.0,60.0,60.0
3186,Mg2Si1,0.2363,225,4.492216,4.492216,4.492216,60.0,60.0,60.0
3187,O16Si8,1.3842,95,4.610721,4.610721,15.25116,90.0,90.0,90.0
3188,S12Sb8,1.2865,62,3.873982,11.24771,12.10676,90.0,90.0,90.0
3189,O4Sn2,0.0543,58,3.3009500000000003,4.901844,4.911862,90.0,90.0,90.0
3190,Na2O1,1.9195000000000002,225,3.939738,3.939738,3.939738,60.0,60.0,60.0
3191,Cs1I1,3.6814999999999998,221,4.662949,4.662949,4.662949,90.0,90.0,90.0
3192,O6Si3,5.5319,180,5.100189,5.100189,5.596023,90.0,90.0,120.0
3193,B6O9,6.2644,144,4.411216,4.411216,8.821444,90.0,90.0,120.0
3194,C4O4,5.8878,198,5.640161,5.640161,5.640161,90.0,90.0,90.0
3195,O4Zr2,3.867,137,3.644002,3.644002,5.298046,90.0,90.0,90.0
3196,Ge3O6,3.1571,152,5.050638,5.052288,5.765892,89.97059,90.0064,120.0008
3197,Ca2Cl4,5.3373,136,6.460036,6.460036,4.205342,90.0,90.0,90.0
3198,Ba1O2,2.2237,65,4.329218,4.329218,3.656748,90.0,90.0,126.6372
3199,O16Si8,5.5371,15,7.241024,7.241024,7.229408,75.4557,75.4557,119.6802
3200,Mn1O1,0.1757,225,3.194303,3.194303,3.194303,60.0,60.0,60.0
3201,C8N8,4.7918,61,6.413484,7.106555,7.230075,90.0,90.0,90.0
3202,F12Tb4,7.7572,62,4.436013,6.481644,6.960987,90.0,90.0,90.0
3203,Te1Zn1,1.4774,216,4.341269,4.341269,4.341269,60.0,60.0,60.0
3204,Ba8Si16,0.7627,62,6.767408,9.028201,11.60381,90.0,90.0,90.0
3205,Cd11I22,2.3758,156,4.312648,4.312614,80.1473,90.0025,90.0,120.0003
3206,Cr4O6,2.3683,167,5.4470089999999995,5.4470089999999995,5.4470089999999995,55.73611,55.73611,55.73611
3207,O36Si18,5.6786,69,12.66684,11.33151,11.21613,68.35592,56.25381,55.39026
3208,Co4Sb12,0.147,204,7.870817,7.870817,7.870817,109.4712,109.4712,109.4712
3209,O24Rh16,1.6600000000000001,61,5.229477,5.530992,14.95828,90.0,90.0,90.0
3210,O4Ti2,2.2617,136,4.671729,4.671729,3.024062,90.0,90.0,90.0
3211,S8Zn8,2.6846,160,24.98141,24.9814,24.9814,8.713637,8.713468,8.713468
3212,Eu6O9,0.18230000000000002,12,7.321841,7.321841,8.92945,80.55272,80.55272,29.1809
3213,Rb6Sb2,0.1,194,6.418356,6.418356,11.36249,90.0,90.0,120.0022
3214,F4Mg2,6.8304,136,4.692822,4.692822,3.093889,90.0,90.0,90.0
3215,O32Si16,5.6214,55,8.469767,9.889823,9.911438,90.0,90.0,90.0
3216,Al16O24,4.8262,33,4.885475,8.396298999999999,9.028918,90.00001,90.00047,90.00069
3217,Ru4Se8,0.8639,205,6.021309,6.021309,6.021309,90.0,90.0,90.0
3218,Cs4S6,1.3622,36,6.807262,6.807262,8.473435,90.0,90.0,109.8184
3219,O6Si3,5.7127,154,4.988868,4.988821,5.484588,89.99994,90.0,120.0004
3220,O1Sr1,3.2756,225,3.681171,3.681171,3.681171,60.0,60.0,60.0
3221,O6Si3,5.725,152,4.971997,4.971935,5.466867,90.00033,89.99936,119.999
3222,In2Se2,0.9904000000000001,12,6.315385,6.315385,4.705986,70.8961,70.8961,38.57447
3223,O2Zn2,1.8227,186,3.198003,3.198003,5.130196,90.0,90.0,119.9964
3224,Sn1Te1,0.0745,225,4.562483,4.562483,4.562483,60.0,60.0,60.0
3225,K3Sb1,0.6853,225,6.051318,6.051318,6.051318,60.0,60.0,60.0
3226,Ni1O1,1.7930000000000001,225,2.987945,2.987945,2.987945,60.06362,60.06362,60.06362
3227,Se4Sn4,0.6396000000000001,62,4.250794,4.586871,11.94318,90.0,90.0,90.0
3228,O24Si12,5.7126,194,10.09033,10.09033,10.29415,90.0,90.0,120.0
3229,Fe2Se2,0.5551,194,3.658024,3.658024,5.5622679999999995,90.0,90.0,119.968
3230,Mo4O12,1.8519999999999999,62,3.735691,3.957505,15.0597,90.0,90.0,90.0
3231,Rb8Te4,1.3831,62,6.135825,8.138877,10.63698,90.00063,90.0,90.0
3232,Ni1O1,1.7916,225,2.988744,2.988744,2.988744,60.0,60.0,60.0
3233,Se4Sn4,0.6388,62,4.272493,4.559056,11.97808,90.0,90.0,90.0
3234,S6Zr2,1.0942,11,3.661021,5.192325,9.430586,95.68429,90.0,90.0
3235,Li2Se1,2.9732000000000003,225,4.254662,4.254662,4.254662,60.0,60.0,60.0
3236,O32Si16,5.6107,141,14.84908,14.84908,14.84908,149.3291,149.3291,43.92709
3237,N12Sr2,3.657,70,8.405852,6.807142,6.590416,77.70096,52.30006,49.99898
3238,P16Zn4,0.9699000000000001,92,5.013871,5.013871,14.53598,90.0,90.0,90.0
3239,Ga1N1,1.7448000000000001,216,3.20173,3.20173,3.20173,60.0,60.0,60.0
3240,Mn1S1,0.8181,225,3.735773,3.735773,3.735773,60.0,60.0,60.0
3241,Ca6N4,0.766,167,6.603371,6.603391,6.60337,55.92831,55.92876,55.92856
3242,O8Ti4,2.2505,62,3.252274,5.24378,6.513602,90.0,90.0,90.0
3243,Mg1Se1,1.7730000000000001,225,3.890791,3.890791,3.890791,60.0,60.0,60.0
3244,Al4O6,5.8482,167,5.18175,5.18175,5.18175,55.2874,55.2874,55.2874
3245,Gd16O24,3.618,206,9.420311,9.420311,9.420311,109.4712,109.4712,109.4712
3246,O22Ti12,1.2206000000000001,2,5.70939,9.916249,7.27802,89.22236,108.59,100.0086
3247,S2Ti1,0.5562,164,3.47784,3.478015,6.2936119999999995,90.0,89.99389,120.0017
3248,As4Cl12,4.0078,19,4.702128,10.24524,12.26994,90.0,90.0,90.0
3249,Cl2Mg1,5.6218,166,6.918354,6.918354,6.918354,30.81476,30.81476,30.81476
3250,Se2V2,0.7284,194,3.835793,3.835902,6.309966,90.0,90.0,119.9991
3251,Cl1K1,4.8085,221,3.836055,3.836055,3.836055,90.0,90.0,90.0
3252,S6Zr2,1.0871,11,3.657159,5.2023019999999995,9.504048,95.95979,90.0,90.0
3253,Cl40Mo8,0.765,14,12.69158,9.841997,13.16911,70.23332,90.0,90.0
3254,O4Si2,5.3686,227,5.274567,5.274567,5.274567,60.0,60.0,60.0
3255,Se2Sn2,0.6198,63,6.039736,6.039736,6.182115,90.0,90.0,140.7994
3256,Eu1S1,0.7168,225,4.245238,4.245238,4.245238,60.0,60.0,60.0
3257,F8V2,1.9086,14,5.146808,5.456041,5.703142,61.48297,90.0,90.0
3258,Cd7I14,2.3991,156,4.313911,4.31392,51.06893,90.0,90.00025,120.0001
3259,Ga12Ru4,0.30560000000000004,136,6.504299,6.504299,6.715119,90.0,90.0,90.0
3260,Al16O24,4.8302,33,4.885024,8.395626,9.027611,89.99976,90.00041,90.00044
3261,La16O24,3.5256,206,9.988626,9.988626,9.988626,109.4712,109.4712,109.4712
3262,N8Si6,4.2482,176,7.66104,7.661163,2.924808,90.0,90.0,120.002
3263,F8Pb4,4.3688,62,3.947864,6.5716529999999995,7.800214,90.0,90.0,90.0
3264,C8O16,6.4682,167,7.41808,7.41808,7.41808,89.58665,89.58665,89.58665
3265,As44Rb12,1.4803,60,11.1564,11.57903,15.52433,90.0,90.0,90.0
3266,Te1Yb1,1.2283,225,4.530075,4.530075,4.530075,60.0,60.0,60.0
3267,Au4Br4,2.0518,138,4.433598,4.433598,12.35847,90.0,90.0,90.0
3268,Rb8Te4,1.7107,62,5.62299,9.199491,11.10336,90.0,90.0,90.0
3269,S2Sn2,0.44670000000000004,63,6.317707,6.317707,4.168201,90.0,90.0,141.6766
3270,Be6N4,3.3306,194,2.848267,2.848267,9.760432999999999,90.0,90.0,119.9982
3271,Br2Co1,2.7587,164,3.794782,3.794769,6.557385,90.00379,90.0,120.0001
3272,Mn4Te8,0.1711,205,7.076118,7.076118,7.076118,90.0,90.0,90.0
3273,Bi32O48,2.6055,205,11.44206,11.44206,11.44206,90.0,90.0,90.0
3274,Pb1Te1,0.7989,225,4.636594,4.636594,4.636594,60.0,60.0,60.0
3275,Na2S1,2.4863,225,4.623772,4.623772,4.623772,60.0,60.0,60.0
3276,Re4S8,1.3028,2,6.596329,6.437927,6.9554030000000004,75.82828,74.50929,60.15665
3277,Mn1O1,0.1757,225,3.194311,3.194311,3.194311,60.0,60.0,60.0
3278,Mn1Se1,0.39840000000000003,225,3.91505,3.91505,3.91505,60.0,60.0,60.0
3279,Ce8P16,0.3461,9,9.35077,9.355285,8.868731,61.67289,61.72426,56.12986
3280,O6Si3,5.7145,154,4.986004,4.985987,5.474901,90.00011,89.99984,120.0
3281,O8Os2,3.3655,15,5.462266,5.462266,8.987391,66.52535,66.52535,51.5819
3282,Ga4S4,1.8061,194,3.615198,3.615198,16.20946,90.0,90.0,120.0077
3283,La16O24,3.5282,206,9.992328,9.992328,9.992328,109.4712,109.4712,109.4712
3284,O36Si18,5.5755,65,11.9152,11.9152,7.596688,90.0,90.0,105.5302
3285,Ni1O1,1.7949000000000002,225,2.990235,2.990235,2.990235,60.0,60.0,60.0
3286,Mg1O1,4.4682,225,3.007354,3.007354,3.007354,60.0,60.0,60.0
3287,Bi2I6,2.4877000000000002,148,8.713654,8.713654,8.713654,53.09493,53.09493,53.09493
3288,O32Si16,5.5454,14,12.51622,7.247543,7.270279,59.93583,90.00019,89.99852
3289,O4Zr2,3.865,137,3.645562,3.645562,5.299441,90.0,90.0,90.0
3290,Cd7I14,2.3833,156,4.313759,4.313717,51.24537,90.0022,90.0,120.0003
3291,O16Sn8,0.2248,61,5.233299,5.319138,10.31943,90.0,90.0,90.0
3292,O2Zn2,1.8288000000000002,186,3.199236,3.199236,5.121586,90.0,90.0,119.9962
3293,C2S4,3.424,64,4.732763,4.732763,9.773901,90.0,90.0,101.6748
3294,O4Si2,5.0071,136,4.231895,4.231895,2.69353,90.0,90.0,90.0
3295,Cd15I30,2.2454,156,4.312548,4.312548,108.3653,90.00288,89.99712,120.0011
3296,Co6O8,0.31220000000000003,227,5.963556,5.963556,5.963556,60.0,60.0,60.0
3297,Bi8O12,2.3139,56,5.22728,5.725032,12.84817,90.0,90.0,90.0
3298,Ru8Si16,0.4152,64,6.502499,6.502499,8.213659,90.0,90.0,103.0585
3299,Al4Br12,4.1078,14,7.670776,7.85422,11.22398,82.13589,90.0,90.0
3300,Cl2Hg2,2.5747999999999998,139,6.464052,6.464052,6.464052,137.3979,137.3979,61.8264
3301,O4Zr2,3.8657,137,3.6443,3.6443,5.294002,90.0,90.0,90.0
3302,Fe4O6,1.2838,167,5.517137,5.517137,5.517137,55.71633,55.71633,55.71633
3303,Eu4I8,3.2641,14,8.236741,7.91699,8.055552,80.49174,90.0,90.0
3304,Ag3P11,0.9127000000000001,8,7.606645,7.606645,6.745034,65.85397,65.85397,60.77599
3305,F3Sc1,6.5706,221,4.123691,4.123691,4.123691,90.0,90.0,90.0
3306,Br16In8,2.3423,52,7.999753,10.62942,10.68121,90.0,90.0,90.0
3307,Br1K1,3.8662,221,4.048284,4.048284,4.048284,90.0,90.0,90.0
3308,Sn1Te1,0.0746,225,4.562558,4.562558,4.562558,60.0,60.0,60.0
3309,P8Pt4,0.8781,205,5.74017,5.74017,5.74017,90.0,90.0,90.0
3310,In8O12,0.439,62,3.107511,10.26666,7.69824,90.0,90.0,90.0
3311,Nd2O3,1.2232,65,6.215101,6.215101,3.231752,89.98218,90.01782,119.8501
3312,Li8P8,0.8092,14,4.972547,5.595312,9.074955,85.21111,90.0,90.0
3313,Be3N2,2.7617000000000003,160,5.1495049999999996,5.1495049999999996,5.1495049999999996,32.09411,32.09411,32.09411
3314,Cl4Pd2,1.5669,10,3.407822,4.203636,11.75963,85.67926,90.0,90.0
3315,As16S12,2.469,62,7.140674,10.89831,12.23813,90.0,90.0,90.0
3316,Bi2Te3,0.3244,166,10.70864,10.70864,10.70864,24.01651,24.01651,24.01651
3317,Mg1O1,4.4683,225,3.007341,3.007341,3.007341,60.0,60.0,60.0
3318,Al4O6,5.856,167,5.181036,5.181036,5.181036,55.28278,55.28278,55.28278
3319,In16Te12,0.08700000000000001,58,4.505242,12.94697,15.88671,90.0,90.0,90.0
3320,Al4O6,5.8518,167,5.179683,5.179683,5.179683,55.30818,55.30818,55.30818
3321,Ce6F18,4.7535,165,7.237983,7.237983,7.387101,90.00975,89.99025,120.0014
3322,Cr2F6,2.6954000000000002,167,5.373797,5.373797,5.373797,56.70267,56.70267,56.70267
3323,Co6O8,0.326,227,5.974471,5.974471,5.974471,60.0,60.0,60.0
3324,O18Ti10,1.2759,1,5.7479,7.255953,8.686374,70.26563,74.37902,71.29978
3325,Cd1S1,0.41190000000000004,225,3.874983,3.874983,3.874983,60.0,60.0,60.0
3326,K2N6,4.1707,140,5.67759,5.67759,5.67759,113.6614,113.6614,101.3814
3327,O4Sn2,0.0531,58,3.300617,4.901979,4.911162,90.0,90.0,90.0
3328,N8Si6,4.2456,176,7.658244,7.658143,2.925248,90.0,90.0,120.0003
3329,O2Pb2,1.6168,129,4.06076,4.06076,5.399548,90.0,90.0,90.0
3330,Al2N2,4.0407,186,3.130816,3.130816,5.007796,90.0,90.0,120.0005
3331,Li3N1,0.981,191,3.650615,3.650615,3.89183,90.0,90.0,119.9962
3332,S20Zn20,2.6909,156,3.797378,3.797327,62.1062,90.00003,90.0,120.0004
3333,F4V2,1.7057,136,4.893287,4.893287,3.310512,90.0,90.0,90.0
3334,Br4Cd2,2.9334,166,13.42234,13.42234,13.4221,17.31786,17.31786,17.31774
3335,Cd1Te1,0.7091000000000001,216,4.667963,4.667963,4.667963,60.0,60.0,60.0
3336,Se4Sn4,0.6424000000000001,62,4.292265,4.495627,12.06101,90.0,90.0,90.0
3337,O24Si12,1.2596,177,12.86504,12.86504,3.892462,90.0,90.0,120.0
3338,O16Si8,5.5504999999999995,15,7.234945,7.234945,7.226488,75.56486,75.56486,119.8786
3339,F24U6,3.2592,15,8.496344,8.496344,8.500432,63.08277,63.08277,80.18725
3340,N8Si6,4.2473,176,7.66092,7.660881,2.924922,90.0,90.0,120.0005
3341,O10V4,2.1274,59,3.61555,4.594061,11.60552,90.0,90.0,90.0