,full_formula,DebyeTemp,spacegroup.number,structure.lattice.a,structure.lattice.b,structure.lattice.c,structure.lattice.alpha,structure.lattice.beta,structure.lattice.gamma
1433,Au2Sn8,133.14,68,6.904356,6.904356,6.714901,90.0,90.0,121.7006
1434,Al1Sb1,276.86,216,4.407919,4.407919,4.407919,60.0,60.0,60.0
1435,Pt2Th2,157.877,63,5.998239,5.998239,4.580862,90.0,90.0,140.8086
1436,Ag2Yb1,148.405,139,5.612997,5.612997,5.612997,140.729,140.729,56.74811
1437,Ge12Pt8,271.151,62,3.452196,6.259384,16.58593,90.0,90.0,90.0
1438,B6O9,584.908,152,4.408953,4.408953,8.9528,90.0,90.0,120.0
1439,Hg1S1,162.754,216,4.246836,4.246836,4.246836,60.0,60.0,60.0
1440,Ir8Mg4,253.545,194,5.154581,5.154581,8.430424,90.0,90.0,119.9956
1441,Al2Mo6,481.304,223,4.99503,4.99503,4.99503,90.0,90.0,90.0
1442,Ni6Sb2,299.762,59,4.2711179999999995,4.423631,5.3127,90.0,90.0,90.0
1443,Al4Li4,581.009,194,4.466098,4.466098,8.629389,90.0,90.0,120.0014
1444,Dy1N1,467.842,225,3.473006,3.473006,3.473006,60.0,60.0,60.0
1445,As8O12,150.03,227,8.186579,8.186579,8.186579,60.0,60.0,60.0
1446,O8Si4,605.075,98,6.9379480000000004,6.9379480000000004,6.9379480000000004,131.7386,131.7386,70.64217
1447,C1Ge1,579.301,225,3.101747,3.101747,3.101747,60.0,60.0,60.0
1448,Br1Cs1,103.014,225,5.22175,5.22175,5.22175,60.0,60.0,60.0
1449,Ho10Sb6,215.465,193,8.944486,8.944606,6.273244,90.0,90.0,119.9996
1450,B4Nb3,784.785,71,7.442466,7.442466,7.442466,155.4786,154.1603,35.92135
1451,Mo2Se4,223.972,194,3.335066,3.335066,13.59072,90.0,90.0,120.0002
1452,P4Ru2,628.92,58,2.897944,5.127679,5.936849,90.0,90.0,90.0
1453,B1Sb1,462.296,216,3.7346,3.7346,3.7346,60.0,60.0,60.0
1454,Cr3Si6,790.346,180,4.419876,4.419876,6.366832,90.0,90.0,120.0
1455,Ac1H2,258.471,225,4.167806,4.167806,4.167806,60.0,60.0,60.0
1456,Pd3Yb1,186.59,221,4.12585,4.12585,4.12585,90.0,90.0,90.0
1457,B2V2,977.144,63,4.332384,4.332384,2.987581,90.0,90.0,138.3917
1458,Na2Te1,204.914,225,5.155096,5.155096,5.155096,60.0,60.0,60.0
1459,P4Sc12,437.133,62,5.934827,6.833334,8.662683,90.0,90.0,90.0
1460,Cd2Te2,151.45,186,4.664252,4.664252,7.63813,90.0,90.0,119.9942
1461,As4Mo5,405.75,87,6.903876,6.903876,6.903876,93.06883,93.06883,153.2436
1462,Ag2Be4,531.423,227,4.545654,4.545654,4.545654,60.0,60.0,60.0
1463,Rh1Zr1,171.654,221,3.286871,3.286871,3.286871,90.0,90.0,90.0
1464,Ni2Si2,502.671,59,3.003115,3.254904,4.686659,90.0,90.0,90.0
1465,B12Ho1,1097.71,225,5.2922139999999995,5.2922139999999995,5.2922139999999995,60.0,60.0,60.0
1466,Si4Th4,254.831,62,4.214948,6.015046,8.041988,90.0,90.0,90.0
1467,S10Zn10,354.964,186,3.798719,3.798719,31.02165,90.0,90.0,120.0014
1468,O8Sn4,509.311,205,5.251993,5.251993,5.251993,90.0,90.0,90.0
1469,Rh2Te2,199.193,194,4.001378,4.001378,5.840977,90.0,90.0,120.0
1470,Co1Si1,433.607,221,2.76908,2.76908,2.76908,90.0,90.0,90.0
1471,Dy1Sb1,223.429,225,4.38418,4.38418,4.38418,60.0,60.0,60.0
1472,Ba6Ge10,218.647,63,6.775183,6.775183,10.45532,90.0,90.0,100.456
1473,Ni6S8,382.297,227,6.660021,6.660021,6.660021,60.0,60.0,60.0
1474,P1Y1,419.44,225,4.013065,4.013065,4.013065,60.0,60.0,60.0
1475,Pa1Rh3,317.211,221,4.044976,4.044976,4.044976,90.0,90.0,90.0
1476,Na6Sb2,234.236,194,5.338396,5.338536,9.484967,90.0,90.0,119.9991
1477,Pt6Si3,199.053,189,6.486665,6.486665,3.592572,90.0,90.0,120.001
1478,Pd1Ti1,168.395,221,3.20223,3.20223,3.20223,90.0,90.0,90.0
1479,C1Ta1,561.837,225,3.167387,3.167387,3.167387,60.0,60.0,60.0
1480,Ir2Mo6,373.049,223,5.003792,5.003792,5.003792,90.0,90.0,90.0
1481,As1Ga1,244.587,44,3.908873,3.908873,3.908873,136.0793,101.7913,94.32148
1482,Ca1Pb1,179.57,123,3.6297420000000002,3.6297420000000002,4.617735,90.0,90.0,90.0
1483,Mo6Si4,431.943,127,6.624048,6.624048,3.329849,90.0,90.0,90.0
1484,Ca2Si2,459.751,63,5.8336749999999995,5.8336749999999995,3.8945629999999998,90.0,90.0,134.1334
1485,C2Nb2,623.324,194,3.15518,3.15518,5.572071,90.0,90.0,120.001
1486,Au4Tb8,144.317,62,5.001709,7.081935,9.002237,90.0,90.0,90.0
1487,C12Yb8,297.563,220,7.268186,7.268186,7.268186,109.4712,109.4712,109.4712
1488,Br1K1,165.133,221,4.015284,4.015284,4.015284,90.0,90.0,90.0
1489,Pd2Sr2,201.013,63,6.064544,6.064544,4.553202,90.0,90.0,139.6131
1490,O2Zn2,408.244,194,2.936123,2.940487,5.04288,90.0,90.0,119.9509
1491,In1N1,367.618,216,3.560873,3.560873,3.560873,60.0,60.0,60.0
1492,Al8Er8,285.277,57,5.576509,5.810437,11.32898,90.0,90.0,90.0
1493,O2Pd4,141.494,224,4.539925,4.539925,4.539925,90.0,90.0,90.0
1494,Hg8I16,65.6887,137,9.100557,9.100557,13.26971,89.9988,89.9988,89.99982
1495,Al8Tb8,287.885,57,5.640671,5.860476,11.462250000000001,90.0,90.0,90.0
1496,As1Pa1,264.421,225,4.098292,4.098292,4.098292,60.0,60.0,60.0
1497,Au1Zn1,167.978,221,3.1505549999999998,3.1505549999999998,3.1505549999999998,90.0,90.0,90.0
1498,Tb2Te4,196.853,129,4.45453,4.45453,8.917613,90.0,90.0,90.0
1499,Ga4Sr1,276.981,139,6.25515,6.25515,6.25515,137.9314,137.9314,61.00806
1500,B2P2,1067.47,186,3.1982559999999998,3.1982559999999998,5.303073,90.0,90.0,119.9997
1501,Ga3Zr1,414.906,139,5.327655,5.327655,5.327655,136.9519,136.9519,62.51209
1502,F1Rb1,204.686,225,4.05202,4.05202,4.05202,60.0,60.0,60.0
1503,Ag4Na2,189.812,227,5.727107,5.727107,5.727107,60.0,60.0,60.0
1504,Al2Ru1,616.117,139,4.782732,4.782732,4.782732,141.7507,141.7507,55.20449
1505,N1Pa1,328.886,225,3.504047,3.504047,3.504047,60.0,60.0,60.0
1506,Br2In2,129.534,63,6.64517,6.64517,4.648239,90.0,90.0,139.4355
1507,O4Pt2,131.968,224,4.465523,4.465523,4.465523,90.0,90.0,90.0
1508,Ir2N2,451.488,131,2.732211,2.732211,6.020543,90.0,90.0,90.0
1509,Al24Ir8,400.199,223,7.78075,7.78075,7.78075,90.0,90.0,90.0
1510,Al4Ru2,558.804,70,5.956582,4.998245,4.65406,76.11849,54.5484,49.33311
1511,B1C7,1845.94,215,3.620117,3.620117,3.620117,90.0,90.0,90.0
1512,As8O12,170.776,227,8.140154,8.140154,8.140154,60.0,60.0,60.0
1513,Pd2Ta2,295.553,129,3.318551,3.318551,6.112313,90.0,90.0,90.0
1514,Co3Fe1,420.986,221,3.70679,3.70679,3.70679,90.0,90.0,90.0
1515,O9W3,554.775,191,7.480874,7.480874,3.846527,90.0,90.0,120.0
1516,P1Sc1,529.16,225,3.810915,3.810915,3.810915,60.0,60.0,60.0
1517,Rb2S2,148.246,71,6.125318,6.125318,6.125318,131.1158,111.5034,88.61675
1518,B2Mo4,560.459,140,4.620489,4.620489,4.620489,105.6353,105.6353,117.45
1519,C2Sc2,482.844,194,3.255567,3.255567,6.080184,90.0,90.0,120.0017
1520,Al32Ni24,565.953,230,9.824276,9.824276,9.824276,109.4712,109.4712,109.4712
1521,Al16Cu36,359.089,215,8.713155,8.713155,8.713155,90.0,90.0,90.0
1522,Ge4Pd4,271.569,62,3.521098,5.872692,6.382513,90.0,90.0,90.0
1523,Bi2Ti4,196.24,139,7.769582,7.769582,7.769582,148.0064,148.0064,45.87591
1524,Si2V6,461.802,223,4.747441,4.747441,4.747441,90.0,90.0,90.0
1525,C1Os1,368.228,221,2.692623,2.692623,2.692623,90.0,90.0,90.0
1526,O1Sr1,423.253,225,3.6809060000000002,3.6809060000000002,3.6809060000000002,60.0,60.0,60.0
1527,Ce1P1,342.862,225,4.034465,4.034465,4.034465,60.0,60.0,60.0
1528,Cd1Sc1,254.421,221,3.5759600000000002,3.5759600000000002,3.5759600000000002,90.0,90.0,90.0
1529,In8Pt12,245.143,194,5.623792,5.623792,13.80193,90.00002,90.00002,120.0
1530,Rh1Ti2,447.939,139,5.535481,5.535481,5.535481,147.6961,147.6961,46.33413
1531,Co1Sc1,370.774,221,3.310736,3.310736,3.310736,90.0,90.0,90.0
1532,N1Tc1,536.802,225,3.120609,3.120609,3.120609,60.0,60.0,60.0
1533,Cs6Hg40,65.4589,223,11.51475,11.51475,11.51475,90.0,90.0,90.0
1534,Ca8Si4,343.725,62,4.815012,7.6234079999999995,9.048828,90.0,90.0,90.0
1535,B4Ti4,948.105,62,3.084367,4.6347439999999995,6.213973,90.0,90.0,90.0
1536,Hf4Tc8,199.911,194,5.216384,5.216384,8.690502,90.0,90.0,120.0
1537,Sb6Tb8,208.751,220,7.9998819999999995,7.9998819999999995,7.9998819999999995,109.4712,109.4712,109.4712
1538,Sb2Sr4,208.495,139,9.619026,9.619026,9.619026,149.5106,149.5106,43.66029
1539,Te4Zr4,280.465,62,3.794689,7.033094,7.428989,90.0,90.0,90.0
1540,Fe4S8,645.182,205,5.528334,5.528348,5.528416,90.00284,89.99701,90.00058
1541,Mo1P1,215.07,216,3.926941,3.926941,3.926941,60.0,60.0,60.0
1542,N4Os2,494.693,127,4.421987,4.421987,2.672106,90.0,90.0,90.0
1543,Sn3Th1,134.415,221,4.873638,4.873638,4.873638,90.0,90.0,90.0
1544,Ag2Th4,138.77,140,6.292784,6.292784,6.292784,102.7995,102.7995,123.843
1545,Sn2Ta6,169.813,223,5.381749,5.381749,5.381749,90.0,90.0,90.0
1546,Ir2P1,348.921,225,3.9212730000000002,3.9212730000000002,3.9212730000000002,60.0,60.0,60.0
1547,La8Sb6,207.89,220,8.447722,8.447722,8.447722,109.4712,109.4712,109.4712
1548,Ga6Hf10,286.825,193,8.010125,8.010125,5.679134,90.0,90.0,120.0007
1549,Be5Hf1,643.342,191,4.530317,4.530477,3.438369,90.0,90.0,119.9988
1550,Li6N2,846.011,194,3.562632,3.562632,6.353878,90.0,90.0,120.0035
1551,B6Ta5,573.877,65,11.55371,11.55371,3.329778,90.0,90.0,164.228
1552,Cl4Zn2,173.802,122,6.421698,6.421698,6.421698,128.4969,128.4969,75.8214
1553,P4Ru8,425.779,62,3.888991,6.003616,6.862259,90.0,90.0,90.0
1554,Rh2Zr2,186.333,123,4.608617,4.613296,3.352649,90.1854,90.0,90.0
1555,Ho8Sb6,205.313,220,7.928772,7.928772,7.928772,109.4712,109.4712,109.4712
1556,Er1Tl3,99.5469,221,4.750891,4.750891,4.750891,90.0,90.0,90.0
1557,Ir4Sb12,285.217,204,8.106777,8.106777,8.106777,109.4712,109.4712,109.4712
1558,Cl1Cs1,140.162,221,4.203025,4.203025,4.203025,90.0,90.0,90.0
1559,Be44Tc2,1228.46,227,8.133522,8.133522,8.133522,60.0,60.0,60.0
1560,Ba1C2,238.235,139,4.790478,4.790478,4.790478,125.2742,125.2742,81.08443
1561,Lu1Pt3,246.705,221,4.050859,4.050859,4.050859,90.0,90.0,90.0
1562,Au4Ho1,158.23,87,5.212998,5.212998,5.212998,99.42408,99.42408,132.2618
1563,B2Mo1,732.044,191,3.033556,3.033254,3.3589539999999998,90.0,90.0,120.0033
1564,O8Te4,300.645,92,4.971033,4.971033,7.621751,90.0,90.0,90.0
1565,Cl8U2,209.833,141,7.111866,7.111866,7.111866,107.2639,107.2639,113.9822
1566,Bi1Ga1,172.358,216,4.552815,4.552815,4.552815,60.0,60.0,60.0
1567,Ir3U1,314.174,221,4.042391,4.042391,4.042391,90.0,90.0,90.0
1568,As1La1,275.54,225,4.394286,4.394286,4.394286,60.0,60.0,60.0
1569,I2Li2,124.29,186,4.567444,4.567031,7.425479,90.0,90.0,120.003
1570,In1Yb1,144.245,221,3.844901,3.844901,3.844901,90.0,90.0,90.0
1571,Be4Ta6,393.177,127,6.566031,6.566031,3.380534,90.0,90.0,90.0
1572,Ba8Ge4,148.446,62,5.471068,8.531834,10.22849,90.0,90.0,90.0
1573,Be26Tb2,918.644,226,7.210602,7.210602,7.210602,60.0,60.0,60.0
1574,N1Rh1,514.749,225,3.077369,3.077369,3.077369,60.0,60.0,60.0
1575,I4Pb2,77.671,186,4.661381,4.661414,14.638490000000001,89.99998,90.0,119.9998
1576,H2Pu1,187.925,225,3.769251,3.769251,3.769251,60.0,60.0,60.0
1577,S8Th4,234.411,62,4.382888,7.443132,8.874778,90.0,90.0,90.0
1578,Sb1Sn1,155.105,221,3.838753,3.838753,3.838753,90.0,90.0,90.0
1579,P4Pt10,250.076,15,6.068048,6.068048,7.509764,81.33087,81.33087,53.11925
1580,B4Ti3,1032.5,71,7.317158,7.317158,7.317158,155.7861,153.737,36.02181
1581,Ca1O1,638.342,225,3.422451,3.422451,3.422451,60.0,60.0,60.0
1582,Sr2Tl4,140.184,194,5.203572,5.203572,8.337576,90.0,90.0,119.9988
1583,S1Sr1,251.942,221,3.66638,3.66638,3.66638,90.0,90.0,90.0
1584,Ho4Os8,209.679,194,5.260317,5.260317,8.964226,90.0,90.0,119.994
1585,Cd1Y1,218.741,221,3.749639,3.749639,3.749639,90.0,90.0,90.0
1586,N8Re4,602.426,62,2.864453,4.159086,9.618349,90.0,90.0,90.0
1587,Tl1Yb1,109.986,221,3.885952,3.885952,3.885952,90.0,90.0,90.0
1588,Se12Th8,218.067,62,4.102868,11.87306,11.59797,90.00918,90.0,90.0
1589,Hf2Ni4,328.695,227,4.846177,4.846177,4.846177,60.0,60.0,60.0
1590,Rh2Th2,179.751,63,6.020997,6.020997,4.41794,90.0,90.0,141.6709
1591,Pu1Se1,198.162,225,4.160723,4.160723,4.160723,60.0,60.0,60.0
1592,Be1Te1,325.903,216,4.00769,4.00769,4.00769,60.0,60.0,60.0
1593,Cu1Ga2,293.833,123,2.826712,2.826712,5.896316,90.0,90.0,90.0
1594,Cd1Yb1,170.096,221,3.8455019999999998,3.8455019999999998,3.8455019999999998,90.0,90.0,90.0
1595,Ir4P12,511.004,204,6.978963,6.978963,6.978963,109.4712,109.4712,109.4712
1596,O1Rb2,154.682,225,4.863164,4.863164,4.863164,60.0,60.0,60.0
1597,Sb6Y8,244.32,220,7.980579,7.980579,7.980579,109.4712,109.4712,109.4712
1598,Hg6Y2,139.397,194,6.653252,6.653252,5.008428,90.0,90.0,120.0028
1599,La1P1,323.925,225,4.29468,4.29468,4.29468,60.0,60.0,60.0
1600,Ge1Mn3,310.806,221,4.155513,4.155513,4.155513,90.0,90.0,90.0
1601,Br1Cu1,169.038,225,3.8220229999999997,3.8220229999999997,3.8220229999999997,60.0,60.0,60.0
1602,Er3Sn7,204.149,65,13.4871,13.4871,4.539163,90.0,90.0,161.1309
1603,Ir6Mo2,417.244,194,5.507209,5.507209,4.395635,90.0,90.0,120.0
1604,Dy4Mg8,215.869,194,6.049266,6.049266,9.78556,90.0,90.0,120.0116
1605,O8W4,514.782,14,4.951644,5.6150459999999995,5.63125,61.19644,90.0,90.0
1606,Cr6Si2,654.406,223,4.545776,4.545776,4.545776,90.0,90.0,90.0
1607,P1Tb1,334.097,225,4.028982,4.028982,4.028982,60.0,60.0,60.0
1608,Li23Sr6,246.899,225,10.4542,10.4542,10.4542,60.0,60.0,60.0
1609,Se1Th1,249.527,221,3.749183,3.749183,3.749183,90.0,90.0,90.0
1610,F4Ni2,454.567,136,4.707403,4.707403,3.114525,90.0,90.0,90.0
1611,Re8Tb4,178.543,194,5.449653,5.449537,8.862338,90.0,90.0,120.0007
1612,P12Rh4,559.638,204,6.97837,6.97837,6.97837,109.4712,109.4712,109.4712
1613,Br1Rb1,129.423,225,4.946928,4.946928,4.946928,60.0,60.0,60.0
1614,Au1Gd1,158.059,221,3.645489,3.645489,3.645489,90.0,90.0,90.0
1615,K2O1,269.151,225,4.584281,4.584281,4.584281,60.0,60.0,60.0
1616,Ba8Sn4,134.175,62,5.731091,8.799996,10.74854,90.0,90.0,90.0
1617,Cr4P4,486.648,62,3.512379,5.9473959999999995,6.080264,90.0,90.0,90.0
1618,Ge2Ho2,291.877,63,5.741806,5.741806,3.936743,90.0,90.0,136.4648
1619,I2La2,226.15,194,3.982665,3.98272,9.852311,90.0,90.0,119.9995
1620,Sb8Zr10,284.272,193,8.848448,8.848046,5.957303,90.0,90.0,120.0015
1621,Dy10Rh6,176.661,193,8.179837,8.179837,6.346002,90.0,90.0,120.0016
1622,Er2Pt4,251.652,227,5.382847,5.382847,5.382847,60.0,60.0,60.0
1623,Be26La2,913.804,226,7.361664,7.361664,7.361664,60.0,60.0,60.0
1624,Au4Cr1,164.874,87,5.075376,5.075376,5.075376,99.54826,99.54826,131.9316
1625,F8Zn4,404.712,60,4.622514,5.112645,5.63876,90.0,90.0,90.0
1626,Au2Ti1,202.488,139,5.051577,5.051577,5.051577,139.3293,139.3293,58.87306
1627,B12Ni1,1109.1,225,5.238628,5.238628,5.238628,60.0,60.0,60.0
1628,Sn8Th10,214.006,193,9.870809,9.870809,6.748314,90.0,90.0,119.9999
1629,Ge1Th1,234.406,225,4.346794,4.346794,4.346794,60.0,60.0,60.0
1630,Er2S4,321.225,129,3.833813,3.833813,7.890064,90.0,90.0,90.0
1631,Be1Ni1,632.446,221,2.587712,2.587712,2.587712,90.0,90.0,90.0
1632,O4Ti2,600.641,141,5.589448,5.589448,5.589448,139.4808,139.4808,58.64251
1633,Ge2W1,445.884,139,4.781517,4.781517,4.781517,138.8708,138.8708,59.57195
1634,Fe1O1,451.894,225,3.055741,3.055741,3.055741,60.0,60.0,60.0
1635,O4Pt2,419.003,58,3.166185,4.587019,4.57217,90.0,90.0,90.0
1636,Hf4Pd12,322.083,194,5.631655,5.631655,9.276677,90.0,90.0,120.0005
1637,Au4La4,146.85,62,4.929716,5.999197,7.63827,90.0,90.0,90.0
1638,O4Sn2,511.381,136,4.828013,4.828013,3.2378460000000002,90.0,90.0,90.0
1639,Cs8Te4,85.2265,62,5.868059,9.590542,11.62345,90.0,90.0,90.0
1640,Er5S7,286.845,12,6.6317450000000004,6.6317450000000004,11.52763,76.04284,76.04284,33.0215
1641,Co1Zr1,342.417,221,3.271288,3.271288,3.271288,90.0,90.0,90.0
1642,Hg1Yb1,152.922,221,3.811446,3.811446,3.811446,90.0,90.0,90.0
1643,Te2Zr2,306.454,194,3.7526260000000002,3.752827,7.934253,90.0,90.0,119.9982
1644,Fe2Te2,220.439,129,3.785997,3.785997,6.202378,90.0,90.0,90.0
1645,La1Sb1,216.448,225,4.64063,4.64063,4.64063,60.0,60.0,60.0
1646,Si4Sr2,386.041,141,7.607701,7.607701,7.607701,145.8728,145.8728,49.03568
1647,B2Fe4,412.043,123,4.463868,4.463868,4.463868,109.2487,109.2487,109.9173
1648,Ca6P6,417.078,189,7.659942,7.659942,5.72051,90.0,90.0,120.0002
1649,Hf1Rh1,191.194,221,3.2540139999999997,3.2540139999999997,3.2540139999999997,90.0,90.0,90.0
1650,Ge2Sc2,394.704,63,5.5334710000000005,5.5334710000000005,3.828566,90.0,90.0,136.86
1651,Mg6O6,505.162,223,5.638229,5.638229,5.638229,90.0,90.0,90.0
1652,Cu1Er1,235.516,221,3.438664,3.438664,3.438664,90.0,90.0,90.0
1653,Co2Sb4,222.814,58,3.274571,5.941445,7.003306,90.0,90.0,90.0
1654,C2N4,961.153,113,3.313,3.313,4.748,90.0,90.0,90.0
1655,K2Zn26,369.932,226,8.653104,8.653104,8.653104,60.0,60.0,60.0
1656,O4Sn2,511.381,136,4.828013,4.828013,3.2378460000000002,90.0,90.0,90.0
1657,B4N4,1449.33,62,2.591114,4.288417,4.889261,90.0,90.0,90.0
1658,Os6Th14,161.216,186,10.35275,10.35275,6.520046,90.0,90.0,119.9996
1659,Os1Zr1,359.328,221,3.285265,3.285265,3.285265,90.0,90.0,90.0
1660,Th6Tl10,150.929,63,6.751034,6.751034,10.688,90.0,90.0,101.8165
1661,Hf1N1,489.705,225,3.208818,3.208818,3.208818,60.0,60.0,60.0
1662,Be5Pd1,806.86,216,4.238418,4.238418,4.238418,60.0,60.0,60.0
1663,Bi1Li3,254.314,225,4.757523,4.757523,4.757523,60.0,60.0,60.0
1664,Co4Sb12,311.579,204,7.872902,7.872902,7.872902,109.4712,109.4712,109.4712
1665,Ca1In1,220.333,221,3.862043,3.862043,3.862043,90.0,90.0,90.0
1666,Fe1Pd3,280.445,221,3.901981,3.901981,3.901981,90.0,90.0,90.0
1667,Pd3Tl1,217.456,139,4.8261330000000005,4.8261330000000005,4.8261330000000005,128.3665,128.3665,76.03203
1668,Mg1S1,548.11,225,3.6929179999999997,3.6929179999999997,3.6929179999999997,60.0,60.0,60.0
1669,Cd1Zr2,244.329,139,7.413734,7.413734,7.413734,155.9816,155.9816,34.2256
1670,Cu4S8,347.382,205,5.823552,5.823552,5.823552,90.0,90.0,90.0
1671,Ni8P8,471.738,61,4.843991,6.05113,6.8385929999999995,90.0,90.0,90.0
1672,O24Y16,469.395,206,9.268971,9.268971,9.268971,109.4712,109.4712,109.4712
1673,Ge1P1,414.509,107,3.813439,3.813439,3.813439,124.1345,124.1345,82.97653
1674,Eu1Se1,219.686,225,4.432744,4.432744,4.432744,60.0,60.0,60.0
1675,As4Cd6,168.65,224,6.439896,6.439896,6.439896,90.0,90.0,90.0
1676,Be26Mg2,1147.74,226,7.136279,7.136279,7.136279,60.0,60.0,60.0
1677,Pt6Th14,140.404,186,10.38834,10.38834,6.572901,90.0,90.0,119.9999
1678,Er1Pt3,244.735,221,4.074222,4.074222,4.074222,90.0,90.0,90.0
1679,Hg3Zr1,127.45,221,4.448581,4.448581,4.448581,90.0,90.0,90.0
1680,Bi6Sr8,147.316,220,8.825863,8.825863,8.825863,109.4712,109.4712,109.4712
1681,Er1Pd3,284.518,221,4.08136,4.08136,4.08136,90.0,90.0,90.0
1682,Ho1In3,203.247,221,4.61265,4.61265,4.61265,90.0,90.0,90.0
1683,Pt2Sb2,173.718,194,4.18365,4.18365,5.553121,90.0,90.0,120.0017
1684,Au1Mn1,202.95,221,3.286483,3.286483,3.286483,90.0,90.0,90.0
1685,As4Pd8,232.125,36,8.70871,8.70871,6.710036,90.0,90.0,158.2788
1686,O24Sc16,651.693,206,8.699625,8.699625,8.699625,109.4712,109.4712,109.4712
1687,Fe8Ta4,278.83,194,5.041675,5.041621,8.107443,90.0,90.0,120.0004
1688,Al8Zr12,382.42,136,7.668503,7.668503,6.98837,90.0,90.0,90.0
1689,I1K1,123.997,221,4.319115,4.319115,4.319115,90.0,90.0,90.0
1690,Bi1Th1,162.051,221,4.00258,4.00258,4.00258,90.0,90.0,90.0
1691,Bi8Pt4,147.653,205,6.801653,6.801653,6.801653,90.0,90.0,90.0
1692,N2Ru2,539.523,194,2.928374,2.928331,5.473803,90.0,90.0,119.9995
1693,Mg4Si2,307.497,194,4.642407,4.642407,6.051892,90.0,90.0,120.0028
1694,As1Sn1,260.982,225,4.143973,4.143973,4.143973,60.0,60.0,60.0
1695,Ca2Hg6,116.139,194,6.77083,6.77083,5.159669,90.0,90.0,120.0024
1696,B2N2,929.774,194,2.5134090000000002,2.513141,7.673283,90.0,90.0,120.0035
1697,As1Er1,282.068,225,4.083968,4.083968,4.083968,60.0,60.0,60.0
1698,As8Hf12,288.764,62,3.672536,10.12381,10.54047,90.0,90.0,90.0
1699,Li1Pb1,129.234,221,3.563576,3.563576,3.563576,90.0,90.0,90.0
1700,Er1Te1,165.495,225,4.320289,4.320289,4.320289,60.0,60.0,60.0
1701,Ba2Zn26,336.508,226,8.670199,8.670199,8.670199,60.0,60.0,60.0
1702,Ca4Cd8,226.762,194,6.050898,6.050765,9.668044,90.0,90.0,120.0007
1703,I1Rb1,109.903,221,4.486521,4.486521,4.486521,90.0,90.0,90.0
1704,As8Zr4,272.22,71,5.8286169999999995,4.044781,12.12094,90.0,90.0,90.0
1705,Hf6Sb6,271.399,63,5.559643,5.559643,14.0517,90.0,90.0,140.3592
1706,Fe6N2,381.681,20,5.074661,5.074661,4.454215,90.0,90.0,120.5871
1707,Ga1Ru1,401.6,221,3.014412,3.014412,3.014412,90.0,90.0,90.0
1708,Te1Th1,242.574,221,3.926973,3.926973,3.926973,90.0,90.0,90.0
1709,P12Rh4,561.874,204,6.977523,6.977523,6.977523,109.4712,109.4712,109.4712
1710,N1Ta1,576.038,187,2.970695,2.970706,2.9182300000000003,90.0,90.0,119.9999
1711,Mo1N1,325.232,216,3.360758,3.360758,3.360758,60.0,60.0,60.0
1712,N2Y2,410.286,194,4.039241,4.039241,4.9298079999999995,90.0,90.0,119.9802
1713,Ba10Sb8,155.377,64,10.10426,10.10426,9.19454,90.0,90.0,126.1273
1714,Au1Cd1,123.157,221,3.377748,3.377748,3.377748,90.0,90.0,90.0