,full_formula,band_gap,spacegroup.number,structure.lattice.a,structure.lattice.b,structure.lattice.c,structure.lattice.alpha,structure.lattice.beta,structure.lattice.gamma
8266,Mn1O3Zr1,0.10070000000000001,221,4.138781,4.138781,4.138781,90.0,90.0,90.0
8267,O16S4Sr4,5.9,62,5.440301,6.950128,8.483357999999999,90.0,90.0,90.0
8268,K1Se8Ti5,0.4582,12,9.93992,9.93992,9.551931,75.84355,75.84355,22.16081
8269,Al3As3O12,3.8743,152,5.145144,5.145147,11.45641,90.00009,89.99975,120.0009
8270,Cu4S6Si2,1.5231,9,6.461605,6.461605,6.315735,81.36046,81.36046,121.0511
8271,Cu4La8S16,1.6962000000000002,14,7.615496,7.819419,10.9673,75.46712,90.0,90.0
8272,F8Li2Y2,7.3239,13,5.3628730000000004,5.136181,5.3514859999999995,88.15761,90.0,90.0
8273,K1O2Sc1,3.9488000000000003,166,6.466372,6.466372,6.466372,29.43944,29.43944,29.43944
8274,Rb8Re12S24,1.3764,15,9.92748,9.92748,12.18447,88.93002,88.93002,60.28697
8275,O8Pb2W2,3.3688000000000002,88,7.246817,7.246817,7.246817,134.7715,134.7715,65.88546
8276,Rb1S2Tb1,2.296,166,8.023621,8.023621,8.023621,29.56502,29.56502,29.56502
8277,B4Ba2S8,2.7223,9,8.697104,8.697104,6.072328,82.52173,82.52173,133.713
8278,Mo2O8Pb2,2.7553,88,7.278261,7.278261,7.278261,135.4208,135.4208,64.87702
8279,Li1S2Sc1,1.8841,166,6.488576,6.488576,6.488576,33.4281,33.4281,33.4281
8280,Cu8O16W4,1.1743000000000001,2,9.025751,7.437139,7.230651,99.21535,93.29981,98.66444
8281,Ba12Fe4S20,0.2887,62,8.765009,9.83504,11.67824,90.0,90.0,90.0
8282,Cd1In2Se4,0.8225,121,7.33946,7.33946,7.33946,132.8916,132.8916,68.82444
8283,C2Na4O6,3.8204000000000002,12,5.210074,5.210074,6.166901,80.14683,80.14683,61.41975
8284,As4O12Sr2,3.2419000000000002,193,4.9492519999999995,4.9492519999999995,11.01498,90.0,90.0,120.0001
8285,B2Na6S6,2.5759,15,6.801237,6.801237,8.408556,65.77509,65.77509,58.71071
8286,Er1Li1S2,1.9902000000000002,166,6.552226,6.552226,6.552226,34.45527,34.45527,34.45527
8287,Mg6Mn1O8,2.2626,225,5.995155,5.995155,5.995155,60.0,60.0,60.0
8288,Ba1O3Ti1,2.1335,221,4.059697,4.059697,4.059697,90.0,90.0,90.0
8289,Cl2O2Yb2,0.0772,166,9.914227,9.914227,9.914227,21.77822,21.77822,21.77822
8290,F12Mn4Na4,2.7196,62,5.620841,5.832558,8.125537,90.0,90.0,90.0
8291,Au24Ge8Na8,0.12290000000000001,205,9.19943,9.19943,9.19943,90.0,90.0,90.0
8292,Ba5Co5O14,1.2725,164,5.734309,5.734311,11.94978,89.99922,90.00072,120.0
8293,Ag20Cs4Se12,0.22010000000000002,136,14.27554,14.27554,4.471291,90.0,90.0,90.0
8294,O8Si2Zr2,4.4692,141,5.618676,5.618676,5.618676,106.7969,106.7969,114.96340000000001
8295,O16Pb4S4,3.9899,62,5.514947,7.069133,8.532565,90.0,90.0,90.0
8296,Cr6Hg3O21,1.9722,145,7.6205300000000005,7.620758,9.624797,90.00028,90.00113,120.008
8297,Cs1F3Hg1,0.7239,221,4.675577,4.675577,4.675577,90.0,90.0,90.0
8298,K1Sb1Zn1,0.5199,187,4.553262,4.553187,5.407481,90.0,90.0,120.0005
8299,Ag8Nb8O24,2.1303,57,5.615829,5.668597,15.82728,90.0,90.0,90.0
8300,I2Sb2Te2,0.8073,12,7.580131,7.580131,9.683124,51.64053,51.64053,32.98186
8301,Br6K2Te1,1.9745,225,7.739164,7.739164,7.739164,60.0,60.0,60.0
8302,Cd1Ta2W1,0.1295,216,4.673985,4.673985,4.673985,60.0,60.0,60.0
8303,Sb4Se12Tl12,0.9541000000000001,198,9.668427,9.668427,9.668427,90.0,90.0,90.0
8304,Cl6Cs2Mg2,5.104,194,7.448902,7.448902,6.267404,90.0,90.0,120.0036
8305,C2Mg2O6,4.9616,167,5.732336,5.732336,5.732336,48.2876,48.2876,48.2876
8306,Ce5O16Zr3,2.3895,21,5.439285,7.64455,7.64455,89.22446,90.0,90.0
8307,In2S4Zn1,0.4738,160,12.65747,12.65747,12.65747,17.73197,17.73197,17.73197
8308,Cd4I2P6,1.1381000000000001,9,6.292241,6.292241,7.61913,83.58427,83.58427,96.7061
8309,I2Se4Tl10,0.676,140,9.351761,9.351761,9.351761,123.8793,123.8793,83.40262
8310,Ba8O18Ta4,4.0923,176,6.190664,6.190643,16.67632,90.0,90.0,120.0007
8311,As4K12Se12,2.1054,198,9.893008,9.893008,9.893008,90.0,90.0,90.0
8312,Cs4In12O20,1.5969,62,3.3814159999999998,10.26503,16.70685,90.0,90.0,90.0
8313,Mg8O24Si8,4.6118,60,5.379815,8.852385,9.360436,90.0,90.0,90.0
8314,Ag8Hf4S12,1.4008,64,6.705692,6.705692,12.94359,90.0,90.0,120.1291
8315,Lu4O16P4,5.9903,141,6.821611,6.821611,5.962425,90.0,90.0,90.0
8316,Al8S16Tl8,1.9709,15,7.359385,7.359385,15.42287,83.07286,83.07286,90.00309
8317,Ba1O3Ti1,2.1459,99,4.055174,4.055174,4.063678,90.0,90.0,90.0
8318,Ce2O8V2,2.4001,141,6.254298,6.254298,6.254298,106.0387,106.0387,116.5788
8319,N2Na2O6,2.9681,167,6.379655,6.379655,6.379655,47.7752,47.7752,47.7752
8320,Hg1O2Rb2,2.0106,139,7.825056,7.825056,7.825056,148.6106,148.6106,44.98485
8321,As4Cs8Te12,0.798,14,9.591003,11.03086,11.75058,60.73026,90.0,90.0
8322,Ag2Ga2Se4,0.6998000000000001,122,7.053517,7.053517,7.053517,128.6287,128.6287,75.60881
8323,Ag8O12Se4,2.5514,14,10.41569,4.991587,7.216257,91.05773,90.0,90.0
8324,Cl2F2Pb2,3.4721,129,4.152209,4.152209,7.323065,90.0,90.0,90.0
8325,La6Nb2O14,3.0715,63,6.846499,6.846499,7.888958,90.0,90.0,111.2975
8326,Co3O18U6,2.6493,150,9.278517,9.278517,5.069572,89.99902,89.99902,60.04862
8327,As1F6Na1,4.9314,225,5.804627,5.804627,5.804627,60.0,60.0,60.0
8328,Fe8O24W4,1.5785,60,4.617513,5.060483,16.95403,90.0,90.0,90.0
8329,B16Li8O28,5.6359,110,8.682867,8.682804,8.682722,113.0744,113.0749,102.483
8330,Ga12I4Te12,1.1571,33,4.166321,11.39157,20.00799,90.0,90.0,90.0
8331,Br4Fe1Li2,2.9902,65,6.762652,6.762652,3.862163,90.0,90.0,109.6319
8332,Hf8O24Pb8,2.7067,55,5.894392,8.24145,11.78948,90.0,90.0,90.0
8333,In4S10Zn4,0.1711,186,3.890466,3.8904449999999997,30.72291,90.0,90.0,120.0002
8334,Ba2H2I2,2.7984999999999998,129,4.7503589999999996,4.7503589999999996,7.893839,90.0,90.0,90.0
8335,Ca4Ge8O20,2.6586,55,5.8077000000000005,7.437906,8.3832,90.0,90.0,90.0
8336,Bi1Co1O3,0.6847000000000001,99,3.7700839999999998,3.7700839999999998,4.856808,90.0,90.0,90.0
8337,Ge2Mg2O6,3.6277,148,5.459929,5.459929,5.459929,54.670230000000004,54.670230000000004,54.670230000000004
8338,Cr4La4O12,2.0754,62,5.620411,5.6036909999999995,7.921693,90.0,90.0,90.0
8339,Ca1Hf1O3,3.6676,221,4.103821,4.103821,4.103821,90.0,90.0,90.0
8340,Ag2Ga2Se4,0.7148,122,7.042335,7.042335,7.042335,128.4121,128.4121,75.95841
8341,O32P8Ti8,3.0782,11,6.6814789999999995,4.827141,17.87241,83.38287,90.0,90.0
8342,Mg2O6Ti2,3.8276,148,5.551165,5.551165,5.551165,55.1672,55.1672,55.1672
8343,Co1Sb1Ti1,0.8165,216,4.161645,4.161645,4.161645,60.0,60.0,60.0
8344,Cr1F6Hg1,1.4148,148,5.741764,5.741764,5.741764,54.90261,54.90261,54.90261
8345,Fe8O20Te4,1.6562999999999999,14,5.041966,7.782755,10.96406,76.74979,90.0,90.0
8346,Fe4O16Sb8,1.1636,135,8.676576,8.676576,6.14228,90.0,90.0,90.0
8347,Al2La2O6,3.6950000000000003,167,5.419333,5.419333,5.419333,60.17657,60.17657,60.17657
8348,Gd6O24Sb10,3.1009,217,9.524722,9.524722,9.524722,109.4712,109.4712,109.4712
8349,Ga2Te4Tl2,0.46780000000000005,140,6.997916,6.997916,6.997916,104.1809,104.1809,120.6658
8350,I3S24Sb1,2.3139,160,15.1649,15.1649,15.1649,118.8404,118.8404,118.8404
8351,Cl16N12Sb4,1.9283000000000001,14,11.81155,8.127494,13.57731,79.35602,90.0,90.0
8352,Al1Co1La2,0.1211,216,4.977464,4.977464,4.977464,60.0,60.0,60.0
8353,C2Ca2O6,4.9995,167,6.46356,6.46356,6.46356,45.97654,45.97654,45.97654
8354,Cl6Li10O2,3.6015,140,7.738835,7.738835,7.738835,125.6108,125.6108,80.5287
8355,O16P4Pb6,3.4886,15,7.59847,7.59847,9.587605,79.66659,79.66659,46.05933
8356,Cs2F6Ni2,4.1472,194,7.447936,7.448782,5.430763,90.0,90.0,119.9962
8357,F3K1Mg1,6.9484,221,4.054647,4.054647,4.054647,90.0,90.0,90.0
8358,Ba2O18Ti8,3.1976,59,3.878271,6.4005,14.89133,90.0,90.0,90.0
8359,Ho2O8V2,2.9497,141,5.985932,5.985932,5.985932,106.2813,106.2813,116.0589
8360,Cu4O4Tl2,0.49870000000000003,74,6.151146,6.151146,6.151146,126.0483,119.649,85.2302
8361,F12Na4U2,3.5324,143,6.187641,6.187482,7.32497,90.00097,89.99746,120.0045
8362,H40O32Se4,3.9617,62,6.478406,9.357431,12.72472,90.0,90.0,90.0
8363,Ag6S6Sb2,1.3067,161,7.147121,7.147121,7.147121,103.589,103.589,103.589
8364,Ce2S12Y6,1.0349,11,4.011053,11.41107,11.1327,71.4092,90.0,90.0
8365,Li4O6Zr2,3.7349,15,5.324637,5.324637,5.467676,78.81458,78.81458,118.3745
8366,Co1Sb1Ti1,0.8149000000000001,216,4.163617,4.163617,4.163617,60.0,60.0,60.0
8367,Gd8Mo4O24,2.0845,15,10.08241,10.08241,5.476504,74.98993,74.98993,68.28589
8368,Nb4O18Zn8,3.1564,165,5.151294,5.151294,14.18289,90.0023,89.9977,120.0021
8369,Cl28I4S4,1.6709,14,13.10325,8.919947,10.59605,72.19857,90.0,90.0
8370,Na1Nb1O3,1.8285,221,3.982761,3.982761,3.988763,90.0,90.0,89.92468
8371,Ag2In2Te4,0.40280000000000005,122,7.972501,7.972501,7.972501,131.0851,131.0851,71.67794
8372,Ag12K4S8,1.533,227,9.381301,9.381301,9.381301,60.0,60.0,60.0
8373,Ca8O24Si8,3.6645,140,7.183332,7.183332,7.283438,90.0,90.0,90.0
8374,Al4H4O8,3.9812000000000003,59,3.632414,2.920504,15.23482,90.0,90.0,90.0
8375,Bi2Fe2O6,1.659,161,5.739153,5.739153,5.739153,58.87893,58.87893,58.87893
8376,Ca2O6Si2,3.6903,74,5.09732,5.09732,5.09732,119.9296,119.6399,90.37339
8377,Re12Se24Tl8,1.0024,15,10.1245,10.1245,12.46673,89.43782,89.43782,59.76418
8378,Hg2O8S2,1.3513,7,8.256614,4.929128,4.94906,90.0195,89.99845,126.0679
8379,As1F6Na1,4.9175,225,5.785541,5.785541,5.785541,60.0,60.0,60.0
8380,F2H1Na1,6.8417,166,5.064741,5.064741,5.064741,40.4797,40.4797,40.4797
8381,Cl6K2Sn1,2.1817,225,7.287242,7.287242,7.287242,60.0,60.0,60.0
8382,Li4O6Zr2,3.7417,15,5.321655,5.321655,5.468072,78.80581,78.80581,118.3838
8383,Mn8O26Sr14,1.0598,14,9.993853,6.938838,10.30372,85.39224,90.0,90.0
8384,Cs2Cu2O4,1.2828,63,6.663411,6.663411,5.492554,90.0,90.0,132.5208
8385,Co1Cu2Re1,0.06760000000000001,216,4.114784,4.114784,4.114784,60.0,60.0,60.0
8386,O12Se4Sr4,3.8366,62,4.490282,5.597232,12.81599,90.0,90.0,90.0
8387,Cl20K4Pb8,3.6389,14,8.940896,8.145955,15.12032,57.40194,90.18138,90.0
8388,Ag2Ga2Se4,0.7010000000000001,122,7.051966,7.051966,7.051966,128.6084,128.6084,75.6415
8389,Cu6P2Se8,0.3116,31,6.446851,6.742818,7.768192,90.0,90.0,90.0
8390,F36Nb4Se4,5.4876000000000005,146,9.154567,9.154567,9.154567,93.29031,93.29031,93.29031
8391,Mn2O6Ti2,2.697,148,5.70121,5.70121,5.70121,54.67159,54.67159,54.67159
8392,Cd1F3Tl1,4.1157,221,4.484984,4.484984,4.484984,90.0,90.0,90.0
8393,Ca2O22Ta8,3.7975,182,6.2955,6.295583,12.43315,90.0,90.0,119.9996
8394,O8Pr2V2,2.7067,141,6.215592,6.215592,6.215592,106.0852,106.0852,116.4789
8395,Au2N24Rb2,1.4977,15,7.649833,7.649833,8.457486,90.92264,90.92264,91.11238
8396,As4F24Hg8,0.7433000000000001,14,11.87443,5.598324,10.20163,88.01869,90.0,90.0
8397,Cd2Sc4Se8,0.7749,227,8.082295,8.082295,8.082295,60.0,60.0,60.0
8398,Cl24Se16Zr4,1.3158,56,11.21605,11.13113,11.20189,90.0,90.0,90.0
8399,C2Fe2O6,3.1361,167,5.539233,5.539233,5.539233,48.97296,48.97296,48.97296
8400,F6Rh1Zn1,1.2423,148,5.447131,5.447131,5.447131,56.66296,56.66296,56.66296
8401,Pr8S20Th4,1.4712,62,7.667702,8.343111,12.24248,90.0,90.0,90.0
8402,F3Mn1Sr1,1.9385,221,4.755582,4.755582,4.755582,90.0,90.0,90.0
8403,Cl2F2Yb2,3.1592000000000002,129,3.937115,3.937115,6.892984,90.0,90.0,90.0
8404,C2Mg2O6,4.961,167,5.735962,5.735962,5.735962,48.35573,48.35573,48.35573
8405,H6O6Tb2,3.6301,176,6.347295,6.347395,3.577913,90.0,90.0,119.9985
8406,H4K2Mg1,3.4793,139,7.354881,7.354881,7.354881,148.3019,148.3019,45.43994
8407,Br54Cs18Ho12,4.2145,167,13.89604,13.89604,20.14821,90.0,90.0,120.0
8408,Cu2Ga2Te4,0.4368,122,7.444814,7.444814,7.444814,131.5566,131.5566,70.93022
8409,Al2La2O6,3.708,167,5.434705,5.418875,5.434705,59.90332,60.0,59.90332
8410,F3Na1Pt1,0.16670000000000001,221,4.418149,4.418149,4.418149,90.0,90.0,90.0
8411,Ba4O16S4,5.9544,62,5.54619,7.273996,9.02961,90.0,90.0,90.0
8412,Hg4O24V8,2.0209,61,4.991009,6.070043,14.65938,90.0,90.0,90.0
8413,Co2O8S2,3.4443,63,4.767823,4.767823,6.639094,90.0,90.0,113.3833
8414,O64S16Th8,4.7421,61,9.417798,9.794080000000001,14.08758,90.0,90.0,90.0
8415,Cl2N2O12,1.3795,15,5.896282,5.896282,7.396607,72.97755,72.97755,75.81615
8416,Ge2Mg2O6,2.4289,63,4.946845,4.946845,7.030031,90.0,90.0,146.4843
8417,Ca6O12U2,3.1435,4,6.008711,5.775648,8.430201,89.32397,90.0,90.0
8418,H8O6Sr2,4.3382,26,3.690211,6.236342,6.7751909999999995,90.0,90.0,90.0
8419,Fe4La6S14,0.7964,173,10.37761,10.37785,6.020298,90.0,90.0,120.0031
8420,Hg1Ni1Sc2,0.5292,216,4.64684,4.64684,4.64684,60.0,60.0,60.0
8421,La4O4Se3,1.4444,38,7.030525,7.030525,8.664926,90.0,90.0,145.6699
8422,Li12O24W6,5.0704,148,9.049086,9.049086,9.049086,107.8587,107.8587,107.8587
8423,F16Na4Ti4,3.0673,60,5.123075,5.894588,11.26494,90.0,90.0,90.0
8424,In8Pb4S16,1.433,62,3.8874649999999997,11.92545,13.84605,90.0,90.0,90.0
8425,C2Cl2F6,6.5731,36,6.249052,6.249052,4.940165,90.0,90.0,105.6162
8426,Ba3O9Si3,3.0389,166,7.4787,7.4787,7.4787,44.14502,44.14502,44.14502
8427,Cr4Se8Zn2,0.3919,227,7.538921,7.538921,7.538921,60.0,60.0,60.0
8428,Cs2I6Pd1,0.091,225,8.255586,8.255586,8.255586,60.0,60.0,60.0
8429,Ce1Li8O6,3.4402,148,6.339107,6.339107,6.339107,53.1405,53.1405,53.1405
8430,Ag2In2S4,0.9218000000000001,122,7.117898,7.117898,7.117898,130.3915,130.3915,72.7816
8431,B1Pd1Ta1,0.9012,216,4.052643,4.052643,4.052643,60.0,60.0,60.0
8432,Cu28P4Se24,0.1202,33,7.169131,10.17425,14.47054,90.0,90.0,90.0
8433,H8O16Se4,3.3806,19,4.711607,8.45302,9.040395,90.0,90.0,90.0
8434,Cd2Ho4S8,1.153,227,7.957909,7.957909,7.957909,60.0,60.0,60.0
8435,Al1Au1Hf1,0.36760000000000004,216,4.429034,4.429034,4.429034,60.0,60.0,60.0
8436,Ca8Mn4O16,0.36510000000000004,142,12.80182,12.80182,12.80182,156.354,156.354,33.68678
8437,F3Ga1Pt1,0.4561,221,4.430855,4.430855,4.430855,90.0,90.0,90.0
8438,As2Ca1Cd2,0.3133,164,4.444759,4.444759,7.205195,89.9983,90.0017,119.9985
8439,Fe2Ge1Zr1,0.16770000000000002,225,4.261086,4.261086,4.261086,60.0,60.0,60.0
8440,O6Pb2Se2,2.8381,11,5.643541,4.574844,6.771955,72.71909,90.0,90.0
8441,O6Pt3Zn1,0.5419,65,6.15929,6.15929,3.192835,90.0,90.0,108.5865
8442,As2Mg2Na2,0.9543,129,4.424926,4.424926,7.192431,90.0,90.0,90.0
8443,Cl18Mn6Rb6,3.2182,194,7.267644,7.267644,18.0764,90.0,90.0,120.0035
8444,N14Na2P8,4.2091,15,7.563118,7.563118,5.184682,79.72867,79.72867,69.35194
8445,C8N6Na2,3.5477,2,3.766756,9.293583,7.79167,105.5256,99.78681,88.5096
8446,Al3O12P3,5.6377,152,5.028123,5.028133,11.07298,90.00001,89.99997,120.0007
8447,F3K1Zn1,5.1747,221,4.045154,4.045154,4.045154,90.0,90.0,90.0
8448,F3Li1Si1,2.5929,221,3.727693,3.727693,3.727693,90.0,90.0,90.0
8449,Mg2O8W2,3.0221,13,5.543161,5.459047,5.627351,116.7544,90.0,90.0
8450,Mn8Se16Si4,1.1254,62,6.317702,7.925545,13.53569,90.0,90.0,90.0
8451,Br16Fe4Tl4,1.8623,52,7.866705,10.56806,10.58711,90.0,90.0,90.0
8452,Cl4I4Ta2,1.4072,71,7.9379539999999995,7.9379539999999995,7.9379539999999995,122.6299,112.3807,94.59034
8453,Li56Mn8N32,1.0995,218,9.595591,9.595591,9.595591,90.0,90.0,90.0
8454,Br12C4F4,3.262,62,6.668736,9.273124,10.22011,90.0,90.0,90.0
8455,Fe4O12Te2,1.1176,136,4.6839,4.6839,9.217291,90.0,90.0,90.0
8456,Al2C2Mg1,1.7472,164,3.390767,3.390646,5.8220279999999995,90.00095,90.0,120.0012
8457,N4Se2Zr4,0.3302,194,3.681819,3.68168,13.33539,90.0,90.0,120.0013
8458,Cl16Co4Rb8,3.6163,62,7.193542,9.326986,14.43688,90.0,89.99755,90.0
8459,O3Sr1Ti1,2.29,221,3.972715,3.972715,3.972715,90.0,90.0,90.0
8460,As32Si8Sr32,1.1068,218,12.83852,12.83852,12.83852,90.0,90.0,90.0
8461,Co1O3Si1,1.2158,221,3.537041,3.537041,3.537041,90.0,90.0,90.0
8462,B1Mn1Ti2,0.1422,216,4.04875,4.04875,4.04875,60.0,60.0,60.0
8463,In4Mg2S8,1.8793000000000002,227,7.680134,7.680134,7.680134,60.0,60.0,60.0
8464,Li1Se2Tb1,1.5131000000000001,166,6.927887,6.927887,6.927887,34.34531,34.34531,34.34531
8465,Cr2O8Yb2,0.5105000000000001,141,6.038096,6.038096,6.038096,105.7991,105.7991,117.0952
8466,Li4O6Si2,5.0819,36,5.47498,5.47498,4.72943,90.0,90.0,120.226
8467,Mn8O14Si2,0.8877,173,8.152816,8.152812,4.962172,90.0,90.0,120.003
8468,In1Re1Ti2,0.1071,216,4.576989,4.576989,4.576989,60.0,60.0,60.0
8469,O16Sb8Zn4,2.5728,135,8.543313,8.543313,6.019281,90.0,90.0,90.0
8470,As8O48S12,4.5702,14,5.536954,9.595555,19.88354,87.38747,90.0,90.0
8471,Fe1Pb1Sc2,0.3347,216,4.709413,4.709413,4.709413,60.0,60.0,60.0
8472,F2Nd2S2,1.2189,129,3.970087,3.970087,6.992688,90.0,90.0,90.0
8473,Sb2Sn1Te4,0.18,166,14.29786,14.29786,14.29786,17.70441,17.70441,17.70441
8474,O14Tb4Ti4,3.2958,227,7.248935,7.248935,7.248935,60.0,60.0,60.0
8475,C32H96Si8,5.6077,205,11.43468,11.43468,11.43468,90.0,90.0,90.0
8476,Mg8O16Si4,4.4965,74,7.69084,7.69084,7.69084,136.0005,114.2024,82.57045
8477,K4O6Pb4,1.6911,199,7.4642859999999995,7.4642859999999995,7.4642859999999995,109.4712,109.4712,109.4712
8478,K3O8Ta1,3.0012,121,6.326931,6.326931,6.326931,113.6753,113.6753,101.3553
8479,Ba2F20Zr4,5.7614,15,8.532842,8.532842,8.917974,84.01899,84.01899,137.1941
8480,Cu1F3Zn1,0.9929,221,3.918043,3.918043,3.918043,90.0,90.0,90.0
8481,Fe20O48Si12,1.9058000000000002,230,10.28612,10.28612,10.28612,109.4712,109.4712,109.4712
8482,O24Si6Zn12,3.4502,148,8.583892,8.583892,8.583892,107.8697,107.8697,107.8697
8483,O6Pb2Rb4,1.2583,36,6.711807,6.711807,6.146768,90.0,90.0,111.7533
8484,Al8Ca8H40,0.7273000000000001,14,6.902579,9.408028999999999,12.29179,87.27462,90.0,90.0
8485,Cs1F3Nb1,0.4324,221,4.521385,4.521385,4.521385,90.0,90.0,90.0
8486,Li2N2Na4,0.5022,129,4.060116,4.060116,6.099285,90.0,90.0,90.0
8487,Ge1Ir1Nb1,0.8594,216,4.245581,4.245581,4.245581,60.0,60.0,60.0
8488,Nb1Rh1Sn1,0.9738,216,4.400263,4.400263,4.400263,60.0,60.0,60.0
8489,Cr1O3Ta1,0.008,221,4.00287,4.00287,4.00287,90.0,90.0,90.0
8490,Bi4Cs4Pt2,0.49470000000000003,63,8.507428,8.507428,7.174251,90.0,90.0,125.7388
8491,Fe1Rh2Se4,0.0828,12,6.865939,6.865939,6.548603,61.46481,61.46481,31.7551
8492,Cr1F3Sr1,0.2378,221,4.723929,4.723929,4.723929,90.0,90.0,90.0
8493,Bi8Ge4O20,2.3392,62,3.97633,11.22119,11.13538,90.0,90.0,90.0
8494,Br12In4Mg4,2.0243,62,4.006298,9.564046,15.6518,90.0,90.0,90.0
8495,O24Pb8S16,3.5498000000000003,61,7.06879,7.321091,16.43568,89.99762,90.0,90.0
8496,O8P2Ti2,3.0674,63,4.818638,4.818638,6.667587,90.0,90.0,112.9038
8497,Ba8Bi8O24,0.0626,148,8.825528,8.825528,8.825528,90.55068,90.55068,90.55068
8498,Ca4Si4Sr4,0.417,62,4.93735,8.091282,9.159838,90.0,90.0,90.0
8499,Bi4Cr4O12,1.2788,15,5.575775,5.575775,9.773856,73.81551,73.81551,60.16585
8500,Fe2O6Ti2,1.9793,148,5.578313,5.578313,5.578313,55.67101,55.67101,55.67101
8501,Bi4K12Te12,1.5075,198,10.52381,10.52381,10.52381,89.99958,89.99958,89.99958
8502,Na1O3Ta1,2.5071,221,3.994532,3.994532,3.994532,90.0,90.0,90.0
8503,O8Si2Th2,4.8637,141,6.144865,6.144865,6.144865,106.1731,106.1731,116.2904
8504,Ge3O9Sr3,2.9506,189,7.042243,7.042243,5.781643,90.0,90.0,120.0
8505,Ag1N1O2,2.0137,44,4.465944,4.465944,4.465944,132.6028,107.1648,91.60264
8506,K3Nb1O8,3.0251,121,6.323977,6.323977,6.323977,113.6112,113.6112,101.4752
8507,H6I6N4,0.7779,11,7.745432,6.323751,7.314622,81.10697,90.0,90.0
8508,Cr6Si6Te18,0.2846,148,6.888187,6.888187,22.73395,90.0,90.0,120.0
8509,Ni1Sc2Zn1,0.33940000000000003,216,4.516696,4.516696,4.516696,60.0,60.0,60.0
8510,Ag12O16Ru4,0.8877,91,7.119108,7.119108,8.809611,90.0,90.0,90.0
8511,Al8Mg4S16,3.0641,62,5.950959,7.276681,12.62931,90.0,90.0,90.0
8512,Cr2O10Pb4,1.8305,12,7.579084,7.579084,7.261715,69.32051,69.32051,45.33397
8513,Mn6O16V4,1.9049,64,6.758328,6.758433,8.59598,90.00044,90.00029,124.12
8514,C2Mg2O6,4.9626,167,5.740764,5.740764,5.740764,48.21474,48.21474,48.21474
8515,Be4F16Na8,6.39,33,5.010202,5.511817,14.54993,90.0,90.0,90.0
8516,P8S8Y8,0.3136,62,5.334632,5.372746,16.80984,90.0,90.0,90.0
8517,Be4Li4N4,2.6854,14,4.76663,4.55005,4.915872,75.48471,90.0,90.0
8518,F7K3Zn2,5.4172,139,10.99845,10.99845,10.99845,158.7528,158.7528,30.2255
8519,Hg2Se4Sn1,0.1464,82,7.295157,7.295157,7.295157,131.9305,131.9305,70.33888
8520,Hf8O24Pb8,2.7688,55,5.906576,8.247049,11.7839,90.0,90.0,90.0
8521,Ba1O3Ti1,2.1365,221,4.060113,4.060113,4.059669,90.0,90.0,90.0
8522,Al4O8Zn2,4.4963,227,5.730157,5.730157,5.730157,60.0,60.0,60.0
8523,Cd2P4Sn2,0.1374,122,7.27164,7.27164,7.27164,131.2339,131.2339,71.44178
8524,Bi4Ga8O18,2.9061,55,5.9757359999999995,8.003326,8.435322,90.0,90.0,90.0
8525,Al16K16O32,4.009,61,5.491184,11.04652,15.62373,90.0,90.0,90.0
8526,Lu2O2S1,3.0407,164,3.692489,3.692451,6.468853,89.9984,90.0,120.0003
8527,Na6O12Os3,0.9135000000000001,189,9.695412,9.695412,3.183555,90.0,90.0,120.0007
8528,Cu12Sb4Se12,0.7488,62,6.929874,8.058722,10.64984,90.0,90.0,90.0
8529,Hg4O8S2,1.959,13,4.590256,6.376771,8.716436,89.04891,90.0,90.0