,full_formula,band_gap,spacegroup.number,structure.lattice.a,structure.lattice.b,structure.lattice.c,structure.lattice.alpha,structure.lattice.beta,structure.lattice.gamma
6943,Eu1Te1,0.8376,225,4.707969,4.707969,4.707969,60.0,60.0,60.0
6944,Ga4Se4,0.899,194,3.808198,3.809017,16.50824,90.0,90.0,119.9929
6945,Br20Sr10,4.3225,85,11.76332,11.76332,7.296237,90.0,90.0,90.0
6946,Mn4S8,1.2284,205,5.647679,5.647679,5.647679,90.0,90.0,90.0
6947,S18Y12,1.4901,11,4.04534,10.2322,17.69196,81.38051,90.0,90.0
6948,Mo2S4,1.2296,194,3.201093,3.201213,13.49578,90.0,90.0,119.9988
6949,H24O12,5.5312,185,7.590035,7.590035,7.139329,90.0,90.0,120.0
6950,Se4Sn4,0.6479,62,4.266986,4.548569,11.98657,90.0,90.0,90.0
6951,S1Sr1,2.4959,225,4.286977,4.286977,4.286977,60.0,60.0,60.0
6952,Cd10I20,2.3491,156,4.315293,4.315293,72.29464,90.0024,89.9976,120.0009
6953,Ge1Te1,0.68,160,4.326431,4.326431,4.326431,58.66928,58.66928,58.66928
6954,Cl1Na1,5.0572,225,4.00553,4.00553,4.00553,60.0,60.0,60.0
6955,Br4Ca2,4.4516,136,6.851123,6.851123,4.407448,90.0,90.0,90.0
6956,S2V1,0.192,164,3.321709,3.319839,6.493632,90.00034,90.0,120.0186
6957,B1N1,4.4558,216,2.563782,2.563782,2.563782,60.0,60.0,60.0
6958,Cl1Tl1,2.1737,221,3.897626,3.897626,3.897626,90.0,90.0,90.0
6959,K12Tl12,0.0736,64,11.07366,11.07366,8.156374,90.0,90.0,91.14033
6960,Eu1O1,0.2679,225,3.6590100000000003,3.6590100000000003,3.6590100000000003,60.0,60.0,60.0
6961,Br8Th2,3.0254,141,7.718258,7.718258,7.718258,106.8005,106.8005,114.9558
6962,Al4O6,5.8436,167,5.17897,5.17897,5.17897,55.33412,55.33412,55.33412
6963,As16S16,2.3889,14,18.46785,7.702066,9.854257,83.45415,90.0,90.0
6964,B4N4,1.5681,8,6.6669339999999995,6.6669339999999995,4.398217,88.82072,88.82072,21.71496
6965,Ge2H8,1.3351,15,5.091401,5.091401,4.728893,86.32556,86.32556,100.8351
6966,Hf4N8,1.1833,205,5.128253,5.128253,5.128253,90.0,90.0,90.0
6967,B6O9,6.2956,152,4.399815,4.399815,8.699875,90.0,90.0,120.0
6968,Se1Sr1,2.2318,225,4.458739,4.458739,4.458739,60.0,60.0,60.0
6969,S18Zn18,2.6689,156,3.798782,3.79876,55.84731,89.99994,90.0,120.0002
6970,Se2Zn2,1.7311,186,4.003559,4.0032,6.5789100000000005,90.0,90.0,120.003
6971,As8S8,2.104,15,7.401817,7.401817,9.51734,81.33882,81.33882,85.78072
6972,Al4C3,1.3188,166,8.594394,8.594394,8.594394,22.4976,22.4976,22.4976
6973,O2Tl4,0.5689000000000001,166,13.32836,13.32836,13.32836,15.62499,15.62499,15.62499
6974,C2Sr1,1.6735,139,4.488775,4.488775,4.488775,125.2071,125.2071,81.19536
6975,N8Si6,4.2446,176,7.6576,7.657599,2.925273,90.0,90.0,120.0005
6976,O16Ti8,2.5769,61,4.882547,5.036965,9.569037999999999,90.0,90.0,90.0
6977,B2N2,4.2301,194,2.510474,2.511503,8.163146,90.0,90.0,119.9865
6978,Ge1Te1,0.6880000000000001,160,4.327988,4.327988,4.327988,58.44111,58.44111,58.44111
6979,Mg2Si1,0.23520000000000002,225,4.490826,4.490826,4.490826,60.0,60.0,60.0
6980,Te3Zn3,0.6185,152,4.311994,4.312033,9.775821,90.00245,89.99753,120.0067
6981,S1Sr1,2.4956,225,4.286777,4.286777,4.286777,60.0,60.0,60.0
6982,Br1Tl1,1.9503,221,4.035104,4.035104,4.035104,90.0,90.0,90.0
6983,Ni1O1,1.7944,225,2.990139,2.990139,2.990139,60.0,60.0,60.0
6984,O8Si4,5.6117,33,5.109215,5.097049,7.108888,90.0,90.0,90.0
6985,Se4Sn4,0.6414000000000001,62,4.260863,4.548382,11.95165,90.0,90.0,90.0
6986,O8Si4,5.3742,20,5.251147,5.269268,8.582236,90.0,90.0,119.8872
6987,Er16O24,3.9582,206,9.137323,9.137323,9.137323,109.4712,109.4712,109.4712
6988,I8O16,1.4479,14,7.05153,8.555096,8.334562,57.96931,90.0,90.0
6989,Cr4O6,2.373,167,5.450627,5.450627,5.450627,55.65607,55.65607,55.65607
6990,K6P2,0.224,194,5.733015,5.733015,10.14555,90.0,90.0,120.0023
6991,H1Li1,2.9616,225,2.8256259999999997,2.8256259999999997,2.8256259999999997,60.0,60.0,60.0
6992,O24Tb16,3.902,206,9.302296,9.302296,9.302296,109.4712,109.4712,109.4712
6993,As16S16,2.3902,14,18.71631,7.652712,9.781978,82.66878,90.0,90.0
6994,Cl1Tl1,2.1732,221,3.8973459999999998,3.8973459999999998,3.8973459999999998,90.0,90.0,90.0
6995,Cs1F1,5.9596,221,3.697097,3.697097,3.697097,90.0,90.0,90.0
6996,As16S16,0.9746,14,12.68229,7.289888,11.76363,70.36004,90.0,90.0
6997,Pb1S1,0.46540000000000004,225,4.24622,4.24622,4.24622,60.0,60.0,60.0
6998,F20U4,2.9433,122,8.650804,8.650804,8.650804,95.50427,95.50427,143.9166
6999,O4Pb4,2.174,57,4.818409,5.764459,6.197019,90.0,90.0,90.0
7000,Fe4Se8,1.495,205,5.912621,5.912621,5.912621,90.0,90.0,90.0
7001,Ba1O1,2.0909,225,3.9703559999999998,3.9703559999999998,3.9703559999999998,60.0,60.0,60.0
7002,O4Ti2,2.5839,141,5.597979,5.597979,5.597979,139.7031,139.7031,58.30434
7003,Li12P28,1.7903,19,7.624011,9.8641,10.59343,90.0,90.0,90.0
7004,Mn8P32,1.0771,15,5.878583,5.878583,21.88716,85.78742,85.78742,51.68281
7005,Ga1N1,0.6138,225,3.00502,3.00502,3.00502,60.0,60.0,60.0
7006,N1Sc1,0.44880000000000003,225,3.242104,3.242104,3.242104,60.0,60.0,60.0
7007,C8Si8,1.737,160,20.32201,20.32201,20.32201,8.735902,8.735902,8.735902
7008,O8Sn4,0.3589,60,4.871601,5.402241,5.916706,90.0,90.0,90.0
7009,K8Sb8,0.7389,14,7.079689,7.296926,12.39098,83.05217,90.0,90.0
7010,Te1Zn1,1.4763,216,4.341568,4.341568,4.341568,60.0,60.0,60.0
7011,Se4Sn4,0.76,62,4.03769,5.431798,11.87013,90.0,90.0,90.0
7012,F4Tl4,3.0724,51,5.347613,5.435386,6.528553,90.0,90.0,90.0
7013,F8Mg4,6.728,205,5.010363,5.010363,5.010363,90.0,90.0,90.0
7014,Cd9I18,2.3849,156,4.312614,4.312588,65.23995,90.00224,90.0,120.0002
7015,F4Mg2,6.8429,136,4.691814,4.691814,3.08993,90.0,90.0,90.0
7016,O2Zn2,1.8195999999999999,186,3.197213,3.197213,5.134519,90.0,90.0,119.9965
7017,Fe4S8,2.0245,205,5.522166,5.522292,5.522162,90.0,90.0,90.0
7018,Ru1Sn1Y2,0.2849,216,4.961849,4.961849,4.961849,60.0,60.0,60.0
7019,Fe4O16Sb8,1.1606,135,8.67557,8.67557,6.141106,90.0,90.0,90.0
7020,Na10Sn12Yb1,0.6786,217,9.809525,9.809525,9.809525,109.4712,109.4712,109.4712
7021,C4Ca22N20,0.7649,136,14.56176,14.56176,3.616563,90.0,90.0,90.0
7022,Cr1Ta2Zn1,0.123,216,4.465927,4.465927,4.465927,60.0,60.0,60.0
7023,Er1S2Tl1,1.4239,166,7.868015,7.868015,7.868015,29.47071,29.47071,29.47071
7024,Mn2Sc4Se8,0.9570000000000001,227,8.003206,8.003206,8.003206,60.0,60.0,60.0
7025,C2Mg2O6,4.9578,167,5.738771,5.738771,5.738771,48.23756,48.23756,48.23756
7026,F3In1Os1,0.2627,221,4.316963,4.316963,4.316963,90.0,90.0,90.0
7027,Nd2O8P2,3.3352,141,5.972698,5.972698,5.972698,105.9984,105.9984,116.6654
7028,B4H16Li4,6.8435,62,4.366547,6.786879,7.059654,90.0,90.0,90.0
7029,Ca2O6Ti2,2.7945,140,5.516649,5.516649,5.451709,119.6271,119.6271,91.31411
7030,Ag1As1Se2,0.1514,166,7.03191,7.03191,7.03191,32.2683,32.2683,32.2683
7031,Ba2F8Mg2,6.8061,63,7.643116,7.643116,5.842944,90.0,90.0,147.9145
7032,F20K8Ti4,3.168,62,6.12544,7.734287,11.08179,90.0,90.0,90.0
7033,Ca8S16Si4,3.0973,62,6.238234,8.245193,13.69688,90.0,90.0,90.0
7034,Al9Br36Pr3,2.3445,152,10.86944,10.86944,18.95609,90.0,90.0,120.0
7035,Cd2Ir1V1,0.1899,216,4.561437,4.561437,4.561437,60.0,60.0,60.0
7036,Fe2O8V2,1.6168,63,5.072382,5.072382,6.253114,90.0,90.0,111.6695
7037,Ba2Br12Th2,2.9308,51,4.636069,9.623774,12.51732,90.0,90.0,90.0
7038,O28V8Zr4,2.5807,205,9.046586,9.046586,9.046586,90.0,90.0,90.0
7039,Fe4K12Se12,0.9625,14,13.21766,8.128245,8.592243,79.07304,90.0,90.0
7040,Eu1H3Li1,0.4606,221,3.761777,3.761777,3.761777,90.0,90.0,90.0
7041,Ca1O4U1,2.7881,166,6.314066,6.314066,6.314066,36.4147,36.4147,36.4147
7042,In1Ir1Y2,0.49660000000000004,216,4.957224,4.957224,4.957224,60.0,60.0,60.0
7043,C2Ca2O6,5.006,167,6.440037,6.440037,6.440037,46.19153,46.19153,46.19153
7044,Ca1H4Rb2,3.299,139,8.044139,8.044139,8.044139,147.6045,147.6045,46.46948
7045,Cr4La4S12,0.25620000000000004,62,3.875131,7.906818,13.36439,90.0,90.0,90.0
7046,B4H16Mg2,6.6183,119,7.744801,7.744801,7.744801,116.6061,116.6061,95.98632
7047,La8N4S6,1.0816,58,4.145095,6.606062,15.92995,90.0,90.0,90.0
7048,Ce2O8Sr4,2.879,55,3.6304,6.162615,10.54773,90.0,90.0,90.0
7049,F3N1Sc1,3.1273,221,4.157645,4.157645,4.157645,90.0,90.0,90.0
7050,O8P2Tb2,5.8711,141,5.804368,5.804368,5.804368,105.9518,105.9518,116.7656
7051,Br4Cu4Te8,0.9069,14,5.131867,8.41971,11.84949,75.86972,90.0001,89.99953
7052,Fe2La2O6,1.0881,167,5.599962,5.599955,5.599964,61.14066,61.14063,61.14096
7053,Br2C1Gd2,0.3924,164,3.814571,3.814611,10.04997,89.99784,90.00176,119.9978
7054,Cd1Ge1O3,0.1272,221,3.781827,3.781827,3.781827,90.0,90.0,90.0
7055,Re4S4Te4,0.1456,216,7.211719,7.211719,7.211719,60.0,60.0,60.0
7056,Cu4Sb4Se8,0.7331000000000001,62,4.045979,6.455197,15.05566,90.0,90.0,90.0
7057,Cd8O36Te12,1.9264000000000001,14,7.416327,9.499299,11.51167,78.84806,90.0,90.0
7058,Al3As3O12,3.8732,152,5.1335049999999995,5.133489,11.47324,90.00237,89.99797,120.0035
7059,Cu1Li2Sb1,0.5016,216,4.4948,4.4948,4.4948,60.0,60.0,60.0
7060,La4Mn4O12,1.1517,11,5.333856,6.859552,10.09455,132.8636,83.08917,100.2311
7061,Cs2Ga2S4,3.1012,15,7.282085,7.282085,5.960389,78.37539,78.37539,116.83
7062,Bi8Ge6O24,3.4614000000000003,220,9.250983,9.250983,9.250983,109.4712,109.4712,109.4712
7063,Ga1Li2Sb1,0.0441,225,4.770049,4.770049,4.770049,60.0,60.0,60.0
7064,Bi4Nb4O16,2.9634,52,5.077009,5.761403,11.84164,90.0,90.0,90.0
7065,As16Ge8Sr12,0.7729,14,18.74395,7.556567,7.701614,68.14106,90.0,90.0
7066,As2Cd2O7,1.7232,12,5.817123,5.817123,4.9435009999999995,82.76713,82.76713,104.7131
7067,F3Sn1Tl1,0.8669,221,4.754853,4.754853,4.754853,90.0,90.0,90.0
7068,Ba8C8Si8,0.7858,62,6.042069,8.950629,11.46771,90.0,90.0,90.0
7069,F24Fe8Rb4,0.9794,62,7.141735,7.580674,10.34124,90.0,90.0,90.0
7070,Cl8Cr2Li4,2.0829,15,7.266334,7.266334,7.503302,62.01993,62.01993,89.96242
7071,Ce4Li4O8,2.8649,14,6.214745,5.893905,5.889597,77.56546,90.0,90.0
7072,Li12O8Zn2,3.9763,137,6.5381789999999995,6.5381789999999995,4.681107,90.0,90.0,90.0
7073,La8S20Si4,2.4684,14,8.635615,8.870301,12.30032,87.53005,90.0,90.0
7074,Mn4O16Sb8,1.6724,135,8.850816,8.850816,6.175477,90.0,90.0,90.0
7075,O3Si1Sn1,0.7773,221,3.718796,3.718796,3.718796,90.0,90.0,90.0
7076,F3Pd1Sc1,0.1295,221,4.175322,4.175322,4.175322,90.0,90.0,90.0
7077,F3Li1Ni1,3.6286,221,3.963808,3.963808,3.963808,90.0,90.0,90.0
7078,Al8O48W12,4.3917,60,9.197976,9.276966999999999,12.81907,90.0,90.0,90.0
7079,B4Li12N8,3.3605,14,7.1009,5.153859,6.756645,68.01915,90.0,90.0
7080,Nd8P8S32,2.1989,142,12.46495,12.46495,12.46495,127.3353,127.3353,77.7043
7081,O3Sr1Ti1,2.2882,221,3.973753,3.973753,3.973753,90.0,90.0,90.0
7082,Br6Pb4Se1,1.8822,44,9.711821,9.711821,9.711821,153.8608,117.1837,69.23286
7083,F3Pd1Y1,0.11670000000000001,221,4.419567,4.419567,4.419567,90.0,90.0,90.0
7084,B16C8H32,4.9183,14,13.6093,6.791719,9.463489,78.60019,90.0,90.0
7085,Cl20P2Ta2,2.3244,2,7.5891649999999995,14.23192,7.342262,91.23557,105.7712,90.38092
7086,Br20Pb4Tl12,3.1082,19,8.678867,9.206131,15.63142,90.0,90.0,90.0
7087,Al4Li4O8,4.5948,92,5.22874,5.22874,6.3248429999999995,90.0,90.0,90.0
7088,Cd1Ga2Se4,1.4142000000000001,82,6.857672,6.857672,6.857672,129.2921,129.2921,74.541
7089,Cl6K2Pd1,1.1208,225,7.023726,7.023726,7.023726,60.0,60.0,60.0
7090,Lu4P4S16,1.6955,14,6.765689,8.515389,10.76404,84.18134,90.0,90.0
7091,B6O18Y6,5.1679,63,6.605357,6.596922,8.905659,90.0,90.0,119.9588
7092,In1Li2P1,0.0713,225,4.617951,4.617951,4.617951,60.0,60.0,60.0
7093,Cr1Li1S2,1.1564,164,3.532609,3.532616,6.036444,90.00202,90.0,119.9999
7094,Ba12Pt24S36,1.6148,92,11.18971,11.18971,13.32889,90.0,90.0,90.0
7095,Na4O8U2,2.8392,55,3.553022,5.795551,9.873937,90.0,90.0,90.0
7096,Cl3Cs1Ge1,1.9792,160,5.498373,5.498373,5.498373,88.93333,88.93333,88.93333
7097,Mg4Nb8O24,3.6942,60,5.088654,5.780362,14.357,90.0,90.0,90.0
7098,Cd1F3Li1,1.6315,221,3.7485,3.7485,3.7485,90.0,90.0,90.0
7099,Al4Cl16Li4,5.5626,14,7.048104,7.040108,13.19891,87.97869,90.0,90.0
7100,O14Sr2V6,2.0582,59,5.371854,5.541096,10.60111,90.0,90.0,90.0
7101,F3In1N1,2.0826000000000002,221,4.203788,4.203788,4.203788,90.0,90.0,90.0
7102,Al1O3Sc1,1.8249,221,3.657858,3.657858,3.657858,90.0,90.0,90.0
7103,K12O16P4,4.0001,62,6.01238,8.216431,11.37458,90.0,90.0,90.0
7104,Cr1Cu1S2,0.3118,160,6.551928,6.551928,6.551928,31.53919,31.53919,31.53919
7105,Cl4Na4O12,5.6266,198,6.676375,6.676375,6.676375,90.0,90.0,90.0
7106,Eu1Na10Sn12,0.6486000000000001,217,9.82938,9.82938,9.82938,109.4712,109.4712,109.4712
7107,Au4K4S20,1.7932000000000001,72,10.6005,10.6005,10.6005,130.463,117.2967,83.8256
7108,Ni6Se16Ta4,0.4242,55,3.499689,10.70587,15.12892,90.0,90.0,90.0
7109,Fe3O12P3,2.5236,152,5.204322,5.204322,11.55889,90.0,90.0,120.0
7110,In1Li2P1,0.0713,225,4.617951,4.617951,4.617951,60.0,60.0,60.0
7111,H8O8Zn4,3.7046,19,4.883711,5.135212,8.09203,90.00715,89.99052,90.00448
7112,Ba4Cl2P14,1.5683,11,6.936172,6.432602,11.87834,84.90395,90.0,90.0
7113,O10P2V2,1.7194,85,6.248475,6.248475,4.540739,90.0,90.0,90.0
7114,In6O18Te3,1.1271,150,9.01496,9.014969,4.891094,89.99776,90.0,120.0
7115,Al2H2O4,5.8982,58,2.8633480000000002,4.189912,4.737972,90.0,90.0,90.0
7116,Li2Sb2Zn2,0.4746,186,4.458617,4.458666,7.186183,90.0,90.0,119.9996
7117,Dy12N4S12,1.4308,62,3.826004,11.94646,12.93829,90.0,90.0,90.0
7118,Cu8O20Y8,1.46,33,3.535905,10.89642,12.60573,90.0,90.0,90.0
7119,Ag2Ga2S4,1.4976,122,6.663238,6.663238,6.663238,127.8684,127.8684,76.83834
7120,Cl24Se4Zr2,2.8184,43,13.10188,12.94218,9.226271,70.18246,68.32749,41.49659
7121,B1F3Fe1,0.596,221,3.942019,3.942019,3.942019,90.0,90.0,90.0
7122,Ag4B4F16,4.8378,62,5.440262,6.897815,8.239059,90.0,90.0,90.0
7123,Co4Mo8S16,0.3583,9,6.85916,6.85916,13.08404,68.69037,68.69037,58.27165
7124,Cr1Cu1O2,1.8221,166,5.990838,5.990838,5.990838,29.48867,29.48867,29.48867
7125,Mg2P2Se6,2.054,148,8.4779,8.4779,8.4779,44.79348,44.79348,44.79348
7126,Au5Cs7O2,1.0289,71,10.62913,10.62913,10.62913,146.12,124.9894,66.19462
7127,Mo2O8Zr1,3.0332,12,5.942013,5.942013,6.362039,88.56043,88.56043,60.35157
7128,Mn4Nb8O24,2.7963,60,5.142865,5.864592,14.60809,90.0,90.0,90.0
7129,Ba8Se20Sn4,1.1714,14,9.084331,9.55799,12.67555,68.59792,90.0,90.0
7130,Cs2O4U1,2.6406,139,8.184165,8.184165,8.184165,148.1898,148.1898,45.60532
7131,La1O2Rb1,3.3807,166,6.991294,6.991294,6.991294,31.43012,31.43012,31.43012
7132,Cl2In2O2,2.5588,59,3.558192,4.132896,8.794117,90.0,90.0,90.0
7133,Ca2Mo2O8,3.3675,88,6.908172,6.908172,6.908172,134.8884,134.8884,65.70365
7134,Pr1Rb1S2,1.9291,166,8.138045,8.138045,8.138045,30.13406,30.13406,30.13406
7135,Ca2O8Pt3,1.612,166,6.31808,6.31808,6.31808,59.54318,59.54318,59.54318
7136,Ag2Hg1I4,1.5156,82,8.0106,8.0106,8.0106,132.0587,132.0587,70.1363
7137,Ba1O3Ti1,2.1322,221,4.060409,4.060409,4.060409,90.0,90.0,90.0
7138,Al1Cu1O2,1.9987,166,5.932304,5.932304,5.932304,28.09749,28.09749,28.09749
7139,Al4Ca8F28,7.1338,62,7.090278,7.807798,9.666529,90.0,90.0,90.0
7140,F20Na4Te4,5.2523,62,6.056651,7.4311869999999995,10.42239,90.0,90.0,90.0
7141,Ag8Nb8O24,2.1531000000000002,57,5.616436,5.671582,15.82223,90.0,90.0,90.0
7142,Eu4O14Sn4,0.11910000000000001,227,7.603858,7.603858,7.603858,60.0,60.0,60.0
7143,Ga2Mn1Se4,1.4784000000000002,82,6.827132,6.827132,6.827132,130.0076,130.0076,73.3946
7144,In2Li2O4,2.0122,141,5.641371,5.641371,5.641371,134.5741,134.5741,66.19261
7145,C16N16Se8,3.4667,61,7.053438,8.459597,14.53776,90.0,90.0,90.0
7146,Au2Cl6Cs2,0.9155000000000001,139,7.793435,7.793435,7.793435,121.5662,121.5662,87.30798
7147,Au1Ba1F3,0.2977,221,5.078458,5.078458,5.078458,90.0,90.0,90.0
7148,Ga2Te4Tl2,0.4963,140,7.00496,7.00496,7.00496,104.0682,104.0682,120.9204
7149,Fe2La2O6,1.0903,167,5.602304,5.602299,5.60235,60.9965,60.99599,60.99489
7150,Cl16Fe4Rb4,2.5176,62,7.316164,9.503182,11.52049,90.0,90.0,90.0
7151,Li8O16V6,0.6949000000000001,11,3.942996,6.303828,11.91145,79.45559,90.0,90.0
7152,Bi1Ga1Li2,0.022600000000000002,225,4.842053,4.842053,4.842053,60.0,60.0,60.0
7153,Ba8Ge4P8,0.5868,14,9.633893,7.577306,8.661475,73.94236,90.0,90.0
7154,K6Sb2Se8,1.422,161,8.167359,8.167359,8.167359,91.15356,91.15356,91.15356
7155,Fe4O16P4,2.0221,62,4.88778,5.921456,9.958859,90.0,90.0,90.0
7156,Hg1Ti1W2,0.053500000000000006,216,4.593782,4.593782,4.593782,60.0,60.0,60.0
7157,O14P4V2,0.9152,122,8.237324,8.237324,8.237324,93.05578,93.05578,153.3016
7158,Al2H2O4,5.9216,58,2.861444,4.18824,4.732833,90.0,90.0,90.0
7159,O3Pb1Tc1,0.0555,221,4.063848,4.063848,4.063848,90.0,90.0,90.0
7160,Cr4K4O14,2.716,15,7.644367,7.644367,7.611535,88.28068,88.28068,59.09004
7161,Ce8O64Se16,1.742,61,9.399976,9.937234,14.09042,89.99109,90.0,90.0
7162,F3S1Zn1,0.534,221,4.035911,4.035911,4.035911,90.0,90.0,90.0
7163,Cs2O16V6,2.0509,11,8.715116,5.149755,8.513451,83.01896,90.0,90.0
7164,Ag1F6Ti1,1.9687999999999999,2,5.785732,5.312657,5.424054,61.2701,60.10172,63.57635
7165,Ge6O18Sr6,3.3221,15,7.341385,7.341774,11.38763,71.63215,71.63344,60.09274
7166,Bi2Fe2O6,1.6721,161,5.7426200000000005,5.7426200000000005,5.7426200000000005,58.86145,58.86145,58.86145
7167,Cs2I6Ti2,1.5234,194,8.415481,8.415543,7.253472,90.0,90.0,119.9998
7168,F18Na6Ti3,5.1370000000000005,164,9.735307,9.735307,4.707585,89.99878,90.00122,120.0033
7169,P4Rb12S16,2.7528,62,9.484573,9.435383999999999,11.20656,90.0,90.0,90.0
7170,Al4Cd2S8,2.5394,227,7.327065,7.327065,7.327065,60.0,60.0,60.0
7171,Cu1Nb1O3,1.3102,221,3.965918,3.965918,3.965918,90.0,90.0,90.0
7172,Pr8S20Zr4,1.0637,62,7.425729,8.050063,11.70842,90.0,90.0,90.0
7173,I4Nb8Te24,0.6782,14,14.24269,9.387354,9.816496,67.16492,90.0,90.0
7174,Cd2Mo2O8,2.3861,88,6.778029,6.778029,6.778029,134.3029,134.3029,66.61523
7175,As4Na8O14,3.2115,15,5.954805,5.954805,12.50292,88.60078,88.60078,118.9502
7176,Al2Cu2O4,2.015,194,2.877015,2.877,11.38981,90.0,90.0,120.0002
7177,H12Mg4Na4,3.3737,62,5.359785,5.441435,7.64843,90.0,90.0,90.0
7178,Ge1La2Ru1,0.028,216,4.989329,4.989329,4.989329,60.0,60.0,60.0
7179,Co2Li16O12,1.4433,185,5.552339,5.552478,10.87616,90.0,90.0,120.0008
7180,Ca6O18Si6,4.7183,15,6.901046,6.901046,10.62403,71.70856,71.70856,60.24676
7181,Pr1Rb1Se2,1.6561,166,8.497361,8.497361,8.497361,29.93062,29.93062,29.93062
7182,Al4Se8Sr2,2.973,66,6.361612,6.361612,11.15922,90.0,90.0,121.075
7183,B16Li8O28,5.6690000000000005,110,8.667542,8.667542,8.667542,112.9667,112.9655,102.6872
7184,C1F2Ho2,1.1346,164,3.641336,3.6413349999999998,6.42624,89.99927,90.00074,120.0009
7185,As1Ga1Rb2,0.4153,225,5.828402,5.828402,5.828402,60.0,60.0,60.0
7186,Al8O36Tb16,4.2294,14,10.596070000000001,7.468461,11.26573,71.39779,90.0,90.0
7187,O8W2Zn2,3.0714,13,5.764852,4.679695,4.948669,90.95494,90.0,90.0
7188,Al3As3O12,3.8727,152,5.114705,5.114704,11.43951,90.00023,89.99997,120.0006
7189,Cr4S8Zn2,1.166,227,7.138523,7.136794,7.136794,60.01603,59.99198,59.99198
7190,Ba3Dy4O9,3.242,146,9.260131,9.260086,9.260045999999999,38.791,38.79118,38.79076
7191,Cl12O2Sr8,4.565,186,9.581134,9.581134,7.300385,89.99999,90.00001,119.9999
7192,Se6Si2Tl4,1.6051000000000002,2,9.030967,7.06301,7.010117,66.71725,66.03892,72.33169
7193,F12Na4Zn4,5.1534,62,5.399899,5.571232,7.740757,90.0,90.0,90.0
7194,F3In1Zn1,2.6485000000000003,221,4.118051,4.118051,4.118051,90.0,90.0,90.0
7195,Cu2In2S4,0.4033,122,6.867941,6.867941,6.867941,132.1321,132.1321,70.0205
7196,Ca8H4N4,1.6384,227,7.152978,7.152978,7.152978,60.0,60.0,60.0
7197,O14Sn4Tb4,2.2263,227,7.505928,7.505928,7.505928,60.0,60.0,60.0
7198,Mg4Mo4O16,3.6112,12,7.036984,7.036984,7.133492,77.57723,77.57723,84.21254
7199,Ru4Sb4Se4,0.9025000000000001,14,6.375538,6.420483,6.456229,66.97993,90.0,90.0
7200,Cs4F16Ti4,2.8343,129,8.168987,8.168987,6.678115,90.0,90.0,90.0
7201,Sb1Sc1V2,0.09730000000000001,216,4.575587,4.575587,4.575587,60.0,60.0,60.0
7202,Cd1F3Tl1,4.1157,221,4.484984,4.484984,4.484984,90.0,90.0,90.0
7203,Ga8K8Se16,1.7394,15,7.824652,7.824652,15.67924,82.83678,82.83678,90.0026
7204,Ca4Mn4O12,0.3875,62,5.414237,5.33412,7.569492,90.0,90.0,90.0
7205,Ba2Cl2F2,5.4409,129,4.456784,4.456784,7.366669,90.0,90.0,90.0
7206,Al2O8P2,5.3712,4,8.53775,5.224356,5.2690339999999996,61.00003,90.0,90.0
7207,Ag4As4F28,1.4511,62,7.273144,7.637195,9.991011,90.0,90.0,90.0
7208,Ag8Nb8O24,2.0993,57,5.615356,5.646955,15.888770000000001,90.0,90.0,90.0
7209,Cr4La4O12,2.075,62,5.619427,5.604103,7.921377,90.0,90.0,90.0
7210,Cs1O3V1,0.08510000000000001,221,4.017073,4.017073,4.017073,90.0,90.0,90.0
7211,Mn1O3Zr1,0.10070000000000001,221,4.138781,4.138781,4.138781,90.0,90.0,90.0
7212,Er4Na4O8,4.0973,15,7.369681,7.369681,5.908162,75.89522,75.89522,126.5347
7213,Br1K3O1,0.8846,221,5.286277,5.286277,5.286277,90.0,90.0,90.0