,full_formula,band_gap,spacegroup.number,structure.lattice.a,structure.lattice.b,structure.lattice.c,structure.lattice.alpha,structure.lattice.beta,structure.lattice.gamma
4730,Ba2Se6,0.9308000000000001,113,7.431493,7.431493,4.286346,90.0,90.0,90.0
4731,Hf1S2,1.2229,164,3.645634,3.645634,6.411889,89.9956,90.0044,119.9962
4732,Rb4Te2,1.3785,194,6.141832,6.141063,8.138429,90.0,90.0,120.0041
4733,Mg24N16,1.5128,206,8.681394,8.681394,8.681394,109.4712,109.4712,109.4712
4734,La2O3,3.7613000000000003,164,3.9885349999999997,3.988256,6.241645,89.99705,90.0,120.0023
4735,Ge3O6,3.1341,154,4.986956,4.986966,5.741673,90.00657,89.99356,120.0207
4736,O16Si8,5.5966000000000005,198,7.23028,7.23028,7.23028,90.0,90.0,90.0
4737,As16Se16,0.10590000000000001,14,17.61505,6.866487,10.41301,66.91209,90.0,90.0
4738,Ge8I32,1.9686,205,12.82962,12.82962,12.82962,90.0,90.0,90.0
4739,H1Li1,2.9617,225,2.825669,2.825669,2.825669,60.0,60.0,60.0
4740,Cl2V1,2.8044000000000002,164,3.7026120000000002,3.699653,6.10801,89.90319,90.0,120.0265
4741,Al1N1,3.3063000000000002,216,3.111453,3.111453,3.111453,60.0,60.0,60.0
4742,B2N2,4.2352,194,2.512801,2.512798,7.884888,90.0,90.0,120.0
4743,I32Sn8,1.8137,205,13.11919,13.11919,13.11919,89.99006,89.99006,89.99006
4744,H4Sr2,1.3052000000000001,194,4.106289,4.106307,5.626355,90.0,90.0,119.9999
4745,O2Zr1,3.1251,225,3.641583,3.641583,3.641583,60.0,60.0,60.0
4746,Cd8P16,1.4511,92,5.353516,5.353516,19.997700000000002,90.0,90.0,90.0
4747,B2N2,4.4977,187,2.512542,2.512542,7.951361,90.0,90.0,120.0033
4748,Te1Yb1,1.1373,225,4.497907,4.497907,4.497907,60.0,60.0,60.0
4749,Ba4F8,6.813,62,4.130984,6.83409,8.040631,90.0,90.0,90.0
4750,O2Pb2,1.6621000000000001,129,4.06489,4.06489,5.481546,90.0,90.0,90.0
4751,Ce1O2,2.425,225,3.882638,3.882638,3.882638,60.0,60.0,60.0
4752,As8S16,1.3229,4,10.62494,7.451483,8.185269,73.4359,90.0,90.0
4753,C1Ru1,0.9589000000000001,216,3.219029,3.219029,3.219029,60.0,60.0,60.0
4754,Li2S1,3.3849,225,4.044652,4.044652,4.044652,60.0,60.0,60.0
4755,Ag1Br1,1.5724,225,4.123419,4.123419,4.123419,60.0,60.0,60.0
4756,O2Th1,4.5405,225,4.119768,4.119768,4.119768,60.0,60.0,60.0
4757,O4Ti2,2.2663,136,4.672276,4.672276,3.023918,90.0,90.0,90.0
4758,In16Te12,0.09670000000000001,58,4.513428,12.96665,15.82094,90.0,90.0,90.0
4759,Cs4Te6,0.5208,36,7.603217,7.603217,8.746548,90.0,90.0,110.5123
4760,Ge3O6,3.1397,152,5.053876,5.053939,5.790005,90.01923,89.98114,120.0273
4761,Be1Se1,2.6691000000000003,216,3.664776,3.664776,3.664776,60.0,60.0,60.0
4762,Cl1Rb1,4.8347,225,4.73817,4.73817,4.73817,60.0,60.0,60.0
4763,Ca24N16,1.1118000000000001,206,9.937331,9.937331,9.937331,109.4712,109.4712,109.4712
4764,Mn1O1,0.1759,225,3.194156,3.194156,3.194156,60.0,60.0,60.0
4765,F6Fe2,2.7119,167,5.474763,5.474763,5.474763,56.94996,56.94996,56.94996
4766,Cl1Cs1,5.0052,221,4.203389,4.203389,4.203389,90.0,90.0,90.0
4767,F4Mn2,2.5777,136,4.97259,4.97259,3.350264,90.0,90.0,90.0
4768,O8Sn4,0.13970000000000002,205,5.257373,5.257373,5.257373,90.0,90.0,90.0
4769,S12Tl16,0.8499,14,13.26562,8.019988,8.126085,76.94999,90.0,90.0
4770,Al4O6,5.8483,167,5.18063,5.18063,5.18063,55.30189,55.30189,55.30189
4771,Bi2I6,2.4138,162,7.759199,7.759332,7.561788,90.00116,89.99768,119.9994
4772,Fe12O16,0.1525,57,2.951052,9.778793,9.996215,90.0,90.0,90.0
4773,Cl1K1,5.0547,225,4.509004,4.509004,4.509004,60.0,60.0,60.0
4774,Se2Ti1,0.058300000000000005,164,3.6271,3.6271,6.534537,90.00048,89.99952,119.9999
4775,Bi8S12,1.3744,62,4.026006,11.20828,11.75553,90.0,90.0,90.0
4776,O8Ti4,2.8376,60,4.623678,5.022356,5.584404,90.0,90.0,90.0
4777,Cd1S1,1.1895,216,4.181524,4.181524,4.181524,60.0,60.0,60.0
4778,Hg1O2,0.1258,12,3.591293,3.591293,4.455806,66.08263,66.08263,80.46775
4779,Br2Mn1,3.3839,164,3.922528,3.92238,6.581615,90.00666,90.0,120.0012
4780,O8Sb4,2.0906,15,6.583719,6.583719,5.474757,76.77685,76.77685,44.00486
4781,Pb1S1,0.46540000000000004,225,4.246177,4.246177,4.246177,60.0,60.0,60.0
4782,I2In2,1.2746,63,6.881606,6.881606,4.889428,90.0,90.0,139.1681
4783,Cl8Cu8,1.0169,205,6.604921,6.604921,6.604921,90.0,90.0,90.0
4784,As6Na18,0.1338,185,8.769774,8.769774,8.998837,90.0,90.0,120.0025
4785,Be1Se1,2.6684,216,3.664282,3.664282,3.664282,60.0,60.0,60.0
4786,F2Pb1,4.3968,225,4.238607,4.238607,4.238607,60.0,60.0,60.0
4787,N1Y1,0.1464,225,3.478392,3.478392,3.478392,60.0,60.0,60.0
4788,Ag1Br1,1.5728,225,4.121204,4.121204,4.121204,60.0,60.0,60.0
4789,Ca6N4,1.3797000000000001,194,3.898006,3.898276,13.23512,90.0,90.0,119.9977
4790,S22Zn22,2.6687000000000003,156,3.798414,3.798376,68.26157,89.99997,90.0,120.0003
4791,O2Zn2,1.8313000000000001,186,3.199418,3.199418,5.119255,90.0,90.0,119.9983
4792,O12Si6,3.7517,1,6.599452,5.741334,6.221682,76.7813,61.86469,65.85377
4793,O6Si3,5.7053,154,4.987988,4.988901,5.475033,89.99816,89.99813,120.0
4794,Pb1Se1,0.398,225,4.386715,4.386715,4.386715,60.0,60.0,60.0
4795,Cl18Cr6,2.4464,153,6.111053,6.111053,19.74823,90.0,90.0,120.0
4796,Fe8Si16,0.9767,64,6.264198,6.264198,7.800516,90.0,90.0,103.9996
4797,Ag1Cl1,1.9714,225,3.972518,3.972518,3.972518,60.0,60.0,60.0
4798,N4S4,3.0351,14,4.14732,4.508798,8.776571,76.2026,90.0,90.0
4799,As16S16,2.1115,14,16.04211,7.059058,10.04979,73.97345,90.0,90.0
4800,Mn6O8,0.6428,141,6.354784,6.354784,6.354784,124.6556,124.6556,82.10928
4801,Ga2N2,1.9328,186,3.204774,3.204798,5.210693,90.0,90.0,119.9997
4802,O4Ti2,2.2689,136,4.67128,4.67128,3.023713,90.0,90.0,90.0
4803,As6Na18,0.1348,185,8.768939,8.768939,8.995064,90.0,90.0,120.0023
4804,As4Os2,0.892,58,3.047006,5.464793,6.269834,90.0,90.0,90.0
4805,F8Xe2,2.7105,14,6.9151869999999995,5.55385,6.043494,75.91667,90.0,90.0
4806,O3Pr2,3.1265,164,3.904337,3.904337,6.074588,89.99787,90.00213,119.9987
4807,O6Si3,5.7168,152,4.971533,4.971728,5.4707609999999995,90.0008,89.9984,120.0044
4808,S2V2,0.40140000000000003,194,3.630841,3.630841,6.110174,90.0,90.0,120.0029
4809,H1Li1,2.9616,225,2.825629,2.825629,2.825629,60.0,60.0,60.0
4810,Ag4O4,0.3362,14,3.6172,5.561839,5.780266,74.60245,90.0,90.0
4811,S1Yb1,1.1404,225,4.027718,4.027718,4.027718,60.0,60.0,60.0
4812,Cd11I22,2.4014,156,4.313699,4.313699,79.98477,90.00122,89.99877,120.0009
4813,K32Si32,1.2703,218,12.69207,12.69207,12.69207,90.0,90.0,90.0
4814,O30V16,0.0166,2,7.545888,5.518671,13.52765,82.11869,107.2829,116.6978
4815,Ni2S2,0.2146,194,3.530279,3.530292,5.6576830000000005,90.0,90.0,119.9999
4816,O8Zr4,3.4744,14,5.285619,5.215322,5.397914,80.38357,90.0,90.0
4817,O2Zn2,1.8276,186,3.198856,3.198856,5.123566,90.0,90.0,119.9962
4818,P4S14,1.9771,2,6.655385,6.680213,11.87457,82.38496,86.56517,86.11381
4819,Co4Sb12,0.1517,204,7.871498,7.871498,7.871498,109.4712,109.4712,109.4712
4820,Ca1F2,7.1319,225,3.897037,3.897037,3.897037,60.0,60.0,60.0
4821,Br1Li1,4.9283,225,3.896473,3.896473,3.896473,60.0,60.0,60.0
4822,Fe6O8,0.1396,63,5.106419,5.10641,9.999136,90.00358,89.99676,146.4043
4823,Ge1Te1,0.7284,160,4.354449,4.354449,4.354449,58.00073,58.00073,58.00073
4824,Ca2N12,3.4107,70,8.023159,6.5028310000000005,6.322858,77.43162,52.28706,50.28132
4825,O2Th1,4.5405,225,4.119783,4.119783,4.119783,60.0,60.0,60.0
4826,O4Ti2,2.2655,136,4.670504,4.670504,3.023812,90.0,90.0,90.0
4827,Cl18Re6,0.9205000000000001,166,9.539923,9.539923,9.539923,66.31063,66.31063,66.31063
4828,Cd1S1,1.1883,216,4.182123,4.182123,4.182123,60.0,60.0,60.0
4829,O2Zn2,1.8272,186,3.198975,3.198757,5.12407,90.0,90.0,120.0023
4830,O2Zn2,1.8302,186,3.199838,3.199838,5.118788,90.0,90.0,119.9976
4831,In16Te12,0.0796,58,4.51369,12.9651,15.89506,90.0,90.0,90.0
4832,I1K1,3.8594,225,5.07436,5.07436,5.07436,60.0,60.0,60.0
4833,Li2O1,4.9035,225,3.289023,3.289023,3.289023,60.0,60.0,60.0
4834,S8U4,0.11750000000000001,62,3.960654,7.177629,8.654919,90.0,90.0,90.0
4835,O4Ti2,2.2659000000000002,136,4.671093,4.671093,3.02264,90.0,90.0,90.0
4836,O6Si3,5.5365,180,5.10303,5.10303,5.5938289999999995,90.0,90.0,120.0
4837,P20Tl4,1.1671,26,6.520277,7.230103,12.38116,90.0,90.0,90.0
4838,O1Sr1,3.2756,225,3.681176,3.681176,3.681176,60.0,60.0,60.0
4839,Cr4O6,2.3709,167,5.449079,5.449079,5.449079,55.69281,55.69281,55.69281
4840,O36S12,5.1411,33,5.601045,11.347010000000001,12.74496,90.0,90.0,90.0
4841,Cl6Sc2,4.2628,148,7.450034,7.451147,7.4518,52.34447,52.33637,52.35192
4842,I2Pb1,2.2929,164,4.6486719999999995,4.6486719999999995,7.174358,90.00395,89.99605,120.001
4843,N8Si6,3.3298,227,5.507603,5.507603,5.507603,60.0,60.0,60.0
4844,Nb4Se18,0.8419000000000001,2,8.516124,8.777252,8.843717,100.055,96.08134,94.37647
4845,O4Si2,5.0009,136,4.233778,4.233778,2.69281,90.0,90.0,90.0
4846,As16S16,2.3715,14,18.61943,7.66016,9.762006,82.93795,90.0,90.0
4847,Ho16O24,3.9489,206,9.186396,9.186396,9.186396,109.4712,109.4712,109.4712
4848,F4Pb1,1.8957000000000002,139,5.248353,5.248353,5.248353,130.7423,130.7423,72.22287
4849,Mn1S1,0.8193,225,3.735982,3.735982,3.735982,60.0,60.0,60.0
4850,C8Na8,3.3749000000000002,142,7.916989,7.916989,7.916989,129.5121,129.5121,74.18796
4851,Mn2S4,0.6011000000000001,58,3.449656,4.636469,5.645884,90.0,90.0,90.0
4852,Sn1Te1,0.0746,225,4.562539,4.562539,4.562539,60.0,60.0,60.0
4853,O8Zr4,3.4692,14,5.277604,5.224129,5.407139,80.27074,90.0,90.0
4854,Br1K1,4.3393,225,4.729622,4.729622,4.729622,60.0,60.0,60.0
4855,Ce1O2,2.4184,225,3.88506,3.88506,3.88506,60.0,60.0,60.0
4856,O12Si6,2.4712,167,9.59565,9.596016,9.596291,117.3332,117.3304,117.3282
4857,P8Rh4,0.2576,14,5.834355,5.776212,5.877141,67.19474,90.0,90.0
4858,Al2N2,4.0658,186,3.126936,3.126936,5.013299,90.0,90.0,120.0017
4859,F4Mg2,6.8394,136,4.689762,4.689762,3.092581,90.0,90.0,90.0
4860,O16Sb8,1.8875000000000002,33,4.904402,5.565959,11.93116,90.0,90.0,90.0
4861,Ga4S4,1.6732,194,3.616732,3.6169789999999997,15.83618,90.0,90.0,120.0023
4862,S4Tl4,0.6798000000000001,140,6.6337340000000005,6.6337340000000005,6.6337340000000005,105.9511,105.9511,116.7671
4863,Mn2Se2,0.9307000000000001,186,4.274367,4.274322,6.893197,90.0,90.0,120.0003
4864,B1N1,4.4561,216,2.563489,2.563489,2.563489,60.0,60.0,60.0
4865,Be1O1,8.1811,225,2.5798259999999997,2.5798259999999997,2.5798259999999997,60.0,60.0,60.0
4866,Lu1N1,0.2001,225,3.34698,3.34698,3.34698,60.0,60.0,60.0
4867,Ca1Se1,2.0759,225,4.217186,4.217186,4.217186,60.0,60.0,60.0
4868,Cu3N1,0.5237,221,3.823053,3.823053,3.823053,90.0,90.0,90.0
4869,F4Mn2,2.5855,136,4.971655,4.971655,3.342184,90.0,90.0,90.0
4870,O8Sn4,0.1323,205,5.259429,5.259429,5.259429,90.0,90.0,90.0
4871,F3Sc1,6.5705,221,4.123667,4.123667,4.123667,90.0,90.0,90.0
4872,O32Si16,5.4834,141,12.24767,12.24767,12.24767,135.7528,135.7528,64.36274
4873,F4Ni2,4.011,136,4.710747,4.710747,3.115065,90.0,90.0,90.0
4874,O24Y16,4.0602,206,9.267138,9.267138,9.267138,109.4712,109.4712,109.4712
4875,F18La6,7.6866,165,7.303231,7.303179,7.4726479999999995,90.00061,90.00001,120.0005
4876,Hf4O8,4.0163,14,5.196179,5.141786,5.3247160000000004,80.34488,90.0,90.0
4877,P8Rh4,0.258,14,5.842366,5.775797,5.875491,67.20404,90.0,90.0
4878,Gd16O24,3.6119,206,9.421768,9.421768,9.421768,109.4712,109.4712,109.4712
4879,Li2O1,4.904,225,3.288718,3.288718,3.288718,60.0,60.0,60.0
4880,S26Zn26,2.6879,156,3.797548,3.797532,80.70412,89.99997,90.0,120.0001
4881,Co2Se2,0.1051,194,3.793173,3.793128,6.051452,90.0,90.0,120.0004
4882,As4Cd2,0.21880000000000002,98,6.206988,6.206988,6.206988,98.51452,98.51452,134.7391
4883,Ni4S8,0.357,198,5.7910260000000005,5.790435,5.790477,89.99733,90.00328,89.99433
4884,Cl1K1,5.054,225,4.509338,4.509338,4.509338,60.0,60.0,60.0
4885,Ag8S4,0.3929,14,6.969697,4.648366,8.846622,93.6141,90.0,90.0
4886,Co4Sb12,0.1492,204,7.871534,7.871534,7.871534,109.4712,109.4712,109.4712
4887,F6Ti2,2.0346,167,5.535978,5.535978,5.535978,60.97451,60.97451,60.97451
4888,O4V2,0.7345,136,3.033631,4.513922,4.511684,89.99937,90.0,90.0
4889,O3Pr2,3.1297,164,3.905538,3.9000209999999997,6.092302,89.92028,90.0,120.0468
4890,Cr4O6,2.372,167,5.449154,5.449154,5.449154,55.68603,55.68603,55.68603
4891,F40Ru8,1.7403,14,10.31406,5.777604,13.05522,78.78179,90.00286,89.99874
4892,O8Si4,5.3667,194,5.276324,5.275987,8.611539,90.0,90.0,120.0021
4893,N1Y1,2.0743,216,3.744839,3.744839,3.744839,60.0,60.0,60.0
4894,Ge8I32,1.9763000000000002,205,12.91466,12.91466,12.91466,90.0,90.0,90.0
4895,Mg1O1,4.4692,225,3.007238,3.007238,3.007238,60.0,60.0,60.0
4896,As4Te6,0.4436,12,7.756271,7.756271,10.09562,84.26898,84.26898,30.45294
4897,Cl1Cu1,1.1441,225,3.621698,3.621698,3.621698,60.0,60.0,60.0
4898,O16Si8,5.5503,15,7.235035,7.235035,7.217303,75.56841,75.56841,119.8436
4899,Cd12I24,2.3757,156,4.312148,4.312119,87.19898,90.00214,90.0,120.0002
4900,Fe4O6,1.3123,63,4.865286,4.865286,6.905591,90.0,90.0,145.9063
4901,Be2Cl4,6.2883,72,6.716507,6.716507,6.716507,134.0267,128.37,71.59509
4902,Cl10Sb2,1.8487,194,8.066756,8.066756,8.465105,90.0,90.0,120.0005
4903,Cr3Si6,0.931,180,4.420256,4.420256,6.367765,90.0,90.0,120.0
4904,Nd16O24,3.4163,206,9.72109,9.72109,9.72109,109.4712,109.4712,109.4712
4905,Br1K1,3.8802000000000003,221,4.042034,4.042034,4.042034,90.0,90.0,90.0
4906,N8Si6,4.2484,176,7.660707,7.6607140000000005,2.924494,90.0,90.0,119.9998
4907,Cd2S2,1.2603,186,4.191868,4.191479,6.807784,90.0,90.0,120.0031
4908,Rb4Te2,1.375,194,6.14549,6.14549,8.11288,90.0,90.0,119.9962
4909,Fe4S8,2.0171,205,5.521797,5.521797,5.521797,90.0,90.0,90.0
4910,O24Sc16,4.2765,206,8.701242,8.701242,8.701242,109.4712,109.4712,109.4712
4911,S6Ti2,0.6964,11,3.469306,5.066359,9.290171,95.63455,90.0,90.0
4912,Be2O2,7.4441,186,2.711265,2.71121,4.4027709999999995,90.0,90.0,120.0007
4913,F18La6,7.6579,165,7.305137,7.305141,7.471973,90.00081,89.99924,120.0013
4914,Br16Si4,4.0852,14,7.273986,11.11041,11.2503,77.32602,90.0,90.0
4915,Cl16V4,0.9901000000000001,13,6.518879,12.72531,13.45968,65.55117,90.0,90.0
4916,Cu1I1,1.647,216,4.308324,4.308324,4.308324,60.0,60.0,60.0
4917,Na8Se16,1.164,122,9.525813,9.525813,9.525813,114.9355,114.9355,99.02149
4918,O4Ti2,2.2622,136,4.672145,4.672145,3.024193,90.0,90.0,90.0
4919,Cu2F4,1.7111,14,4.682157,3.343862,4.6875029999999995,82.27473,90.0,90.0
4920,Ca1Se1,3.165,216,4.663587,4.663587,4.663587,60.0,60.0,60.0
4921,Ce16O24,2.98,206,9.857237,9.857237,9.857237,109.4712,109.4712,109.4712
4922,As8Th6,0.09240000000000001,220,7.845201,7.845201,7.845201,109.4712,109.4712,109.4712
4923,Ce2O3,2.8068,12,3.924817,3.924817,6.166408,89.79018,90.20982,119.7019
4924,As1Ga1,0.29860000000000003,216,4.054681,4.054681,4.054681,60.0,60.0,60.0
4925,Cs8Sb8,0.5526,19,7.543821,7.809235,13.48293,90.0,90.0,90.0
4926,Al2As2,1.6609,186,4.042704,4.042704,6.669795,90.0,90.0,120.0019
4927,O8Si4,5.546,92,5.039893,5.039893,7.024797,90.0,90.0,90.0
4928,Ga1P1,1.6437,216,3.883823,3.883823,3.883823,60.0,60.0,60.0
4929,O8Si4,5.5257000000000005,92,5.062999,5.062999,7.057316,90.0,90.0,90.0
4930,F2Ti1,2.0332,225,3.72901,3.72901,3.72901,60.0,60.0,60.0
4931,Dy2O3,4.2022,164,3.6790000000000003,3.6790000000000003,5.8766,90.0,90.0,120.0
4932,Cl1Na1,5.0536,225,4.006751,4.006751,4.006751,60.0,60.0,60.0
4933,K2O4,0.11560000000000001,15,5.238552,5.238552,7.667164,56.81406,56.81406,47.06042
4934,F18S3,5.8757,12,8.426019,8.426019,4.997511,85.57787,85.57787,60.8861
4935,Ru2Sb4,0.1585,58,3.215867,6.002792,6.7567900000000005,90.0,90.0,90.0
4936,I1K1,3.8356,225,5.092822,5.092822,5.092822,60.0,60.0,60.0
4937,As8O20,1.4359,19,4.720362,8.678445,8.813561,89.99985,90.00025,89.99848
4938,S28Zn28,2.6552,156,3.798123,3.798092,86.88195,89.99994,90.0,120.0003
4939,B1N1,4.4559,216,2.563741,2.563741,2.563741,60.0,60.0,60.0
4940,O4Ti2,2.2628,136,4.669902,4.669902,3.022674,90.0,90.0,90.0
4941,Al4O6,5.859,167,5.177305,5.177305,5.177305,55.32795,55.32795,55.32795
4942,H1Na1,3.7962,225,3.394413,3.394413,3.394413,60.0,60.0,60.0
4943,Ga4Os2,0.7167,70,6.025541,4.979386,4.774793,76.27038,53.39519,50.33443
4944,As4Ru2,0.4798,58,3.000809,5.472001,6.258832,90.0,90.0,90.0
4945,Cs32Si32,1.5676,218,13.71735,13.71735,13.71735,90.0,90.0,90.0
4946,Cu2H2,0.8185,186,2.855596,2.8555729999999997,4.541649,90.0,90.0,120.0003
4947,Cl8W2,0.025900000000000003,12,7.2977039999999995,7.2977039999999995,8.748676,54.4666,54.4666,54.17462
4948,Mg2Te2,2.3765,186,4.604793,4.6042629999999996,7.503001,90.0,90.0,120.0038
4949,Mn1Se1,0.39840000000000003,225,3.915408,3.915408,3.915408,60.0,60.0,60.0
4950,H1Li1,2.9616,225,2.825625,2.825625,2.825625,60.0,60.0,60.0
4951,Cl6Pr2,3.0268,176,7.519169,7.524311,4.322815,90.0,90.0,120.1131
4952,O6Si3,5.6935,152,4.996424,4.996339,5.508724,90.00093,89.99974,120.0015
4953,O14V8,0.6302,2,7.722798,5.757124,12.31472,91.42849,85.52321,58.15508
4954,O2Th1,4.5403,225,4.119908,4.119908,4.119908,60.0,60.0,60.0
4955,Se1Zn1,1.6977,216,4.010688,4.010688,4.010688,60.0,60.0,60.0
4956,O4Ti2,2.2615,136,4.672035,4.672035,3.023778,90.0,90.0,90.0
4957,Mg1O1,4.4686,225,3.007301,3.007301,3.007301,60.0,60.0,60.0
4958,Al4O6,5.846,167,5.180365,5.180365,5.180365,55.30858,55.30858,55.30858
4959,Ca1F2,7.1316,225,3.8970849999999997,3.8970849999999997,3.8970849999999997,60.0,60.0,60.0
4960,Cd13I26,2.2717,156,4.314049,4.314018,94.49064,89.99804,90.0,120.0002
4961,Cr4O6,2.371,167,5.448777,5.448777,5.448777,55.70319,55.70319,55.70319
4962,Te3Zn3,0.6296,181,4.307085,4.305708,9.738633,89.9816,90.00247,120.0201
4963,Li6P2,0.7001000000000001,194,4.23987,4.239853,7.57686,90.0,90.0,120.0001
4964,Cl1K1,4.8933,221,3.810627,3.810627,3.810627,90.0,90.0,90.0
4965,F4Fe2,2.63,136,4.798556,4.798556,3.330239,90.0,90.0,90.0
4966,S12Tl16,0.9197000000000001,14,13.9758,9.145343,7.62858,90.20284,90.0,90.0
4967,Mg1O1,4.4697,225,3.007187,3.007187,3.007187,60.0,60.0,60.0
4968,O4Ti2,2.5293,141,5.562546,5.562546,5.562546,139.2775,139.2775,58.95197
4969,O24Y16,4.0591,206,9.266442,9.266442,9.266442,109.4712,109.4712,109.4712
4970,As16Zn24,0.1228,137,8.322709,8.322709,11.75798,90.0,90.0,90.0
4971,Ge4O8,1.4607,60,4.382186,4.842138,5.409192,90.0,90.0,90.0
4972,Se4Sn4,0.643,62,4.256895,4.570829,11.95755,90.0,90.0,90.0
4973,Ga2N2,1.916,186,3.20612,3.205929,5.216413,90.0,90.0,120.002
4974,O5Ta2,2.6125,5,4.02143,4.02143,5.868678,68.60347,68.60347,80.76149
4975,As1B1,1.202,216,3.406381,3.406381,3.406381,60.0,60.0,60.0
4976,P16Zn24,0.6945,137,7.990493,7.990493,11.2884,90.0,90.0,90.0
4977,O8Th4,3.165,62,3.874609,6.382612,7.432697,90.0,90.0,90.0
4978,O10Ti6,0.21710000000000002,12,5.318077,5.318077,9.650187,88.44947,88.44947,42.82216
4979,N16Zn24,0.5708,206,8.29501,8.29501,8.29501,109.4712,109.4712,109.4712
4980,Eu1Te1,0.7902,225,4.691177,4.691177,4.691177,60.0,60.0,60.0
4981,Co2Se2,0.1075,194,3.788137,3.788137,6.062981,90.0,90.0,119.9937
4982,O12Sb8,3.3449,227,8.121922,8.121922,8.121922,60.0,60.0,60.0
4983,O6Si3,5.7044,154,4.98567,4.985658,5.474389,90.00001,90.00001,120.0
4984,Co9S8,0.5427000000000001,225,7.689681,7.689681,7.689681,60.0,60.0,60.0
4985,Ga1P1,1.6437,216,3.883844,3.883844,3.883844,60.0,60.0,60.0
4986,O10V6,0.7499,15,5.800356,5.800356,7.030556,71.58893,71.58893,50.033
4987,F6Fe2,2.6806,167,5.456492,5.456492,5.456492,57.91397,57.91397,57.91397
4988,Cl32Ti14,0.5854,58,7.260441,10.91533,15.36991,90.0,90.0,90.0
4989,O48Si24,5.6229,223,10.78816,10.78816,10.78816,90.0,90.0,90.0
4990,O32Si16,5.6403,141,12.63806,12.63757,12.63784,132.7798,132.7807,68.9999
4991,C4Os2,0.054900000000000004,194,2.874091,2.874091,7.98345,90.0,90.0,120.0005
4992,Ca1S1,2.384,225,4.043589,4.043589,4.043589,60.0,60.0,60.0
4993,P8Th6,0.13440000000000002,220,7.637496,7.637496,7.637496,109.4712,109.4712,109.4712
4994,Al2N2,4.0588,186,3.127564,3.127564,5.015544,90.0,90.0,120.0014
4995,Br16In8,2.3391,52,8.018413,10.60196,10.68163,90.0,90.0,90.0
4996,Al2Cl6,5.2734,12,6.020197,6.020197,6.748276,81.63501,81.63501,119.9747
4997,I4Pd2,1.1857,58,3.882276,6.874739,8.48433,90.0,90.0,90.0
4998,Ca1Se1,2.0778,225,4.218349,4.218349,4.218349,60.0,60.0,60.0
4999,C5Si5,1.9594,160,12.78268,12.78268,12.78268,13.90308,13.90308,13.90308
5000,Cl6U2,2.6696,11,7.561256,7.595801,4.355398,90.0,90.0,119.8909
5001,C7Si7,1.8576000000000001,160,17.80351,17.80351,17.80351,9.971119,9.971119,9.97115
5002,Cl1K1,5.0322,225,4.519276,4.519276,4.519276,60.0,60.0,60.0
5003,S12Sn8,0.6645,62,3.856635,9.308039,14.47998,90.0,90.0,90.0
5004,Mo1S2,1.2687,160,7.101941,7.101941,7.101941,26.03942,26.03942,26.03942
5005,O6Ti4,0.8497,167,5.48854,5.48854,5.48854,57.75035,57.75035,57.75035