,full_formula,band_gap,spacegroup.number,structure.lattice.a,structure.lattice.b,structure.lattice.c,structure.lattice.alpha,structure.lattice.beta,structure.lattice.gamma
11151,Ag6P2S8,1.4403000000000001,31,6.625925,6.99806,7.806135,90.0,90.0,90.0
11152,Li12O14Zr4,3.9246,15,6.088782,6.088782,10.32016,81.05961,81.05961,59.7192
11153,La4O14Sn4,2.0853,227,7.758502,7.758502,7.758502,60.0,60.0,60.0
11154,C2Ca2O6,5.0098,167,6.425772,6.425772,6.425772,46.36503,46.36503,46.36503
11155,Ir1Ta1Zn2,0.1041,216,4.411553,4.411553,4.411553,60.0,60.0,60.0
11156,Eu2O6Ti2,0.7784000000000001,140,5.609739,5.609739,5.6090219999999995,60.00423,60.00423,59.99154
11157,Au6Cl6O6,1.0999,148,8.328379,8.328379,8.328379,113.3796,113.3796,113.3796
11158,Rb2Se1Zn1,1.7689,225,5.937967,5.937967,5.937967,60.0,60.0,60.0
11159,Li4O8S2,5.9872,63,4.977227,4.977227,6.201136,90.0,90.0,111.8742
11160,B2C2Li2,0.85,194,2.749,2.749,7.053,90.0,90.0,120.0
11161,Co1Li1O2,2.7394,166,5.013937,5.013937,5.013937,32.84251,32.84251,32.84251
11162,Al2Nd2O6,3.7933,167,5.354219,5.354219,5.354219,60.50628,60.50628,60.50628
11163,Cl4Co1Li2,2.8237,65,6.398202,6.398202,3.57439,90.0,90.0,110.4035
11164,Cl4Na4O12,5.6287,198,6.683804,6.683804,6.683804,90.0,90.0,90.0
11165,F36Sb6Tl2,2.2758,147,9.665324,9.665352,8.855267,89.99727,89.99743,120.0283
11166,B16Er4W4,0.2787,55,3.623059,6.021296,11.63567,90.0,90.0,90.0
11167,Gd1S2Tl1,1.5181,166,7.894875,7.894875,7.894875,30.04213,30.04213,30.04213
11168,C1Ca1N2,3.5558,166,5.391123,5.391123,5.391123,40.4798,40.4798,40.4798
11169,Bi6Br2Se8,1.0382,12,10.69096,10.69096,12.18273,66.2239,66.2239,22.19138
11170,Ba8F32Zr4,5.9364,62,5.720556,9.995783,12.05877,90.0,90.0,90.0
11171,C2Ca2O6,5.0177,167,6.39735,6.39735,6.39735,46.58324,46.58324,46.58324
11172,B4H16Li4,6.774,62,4.366313,6.827347,7.01779,90.0,90.0,90.0
11173,Cl6K2Sn1,2.1812,225,7.285707,7.285707,7.285707,60.0,60.0,60.0
11174,Mn4P24W2,0.11520000000000001,15,8.53632,8.53632,10.60087,65.69611,65.69611,39.49099
11175,Na2S4Sb2,0.9119,2,5.893267,5.892723,6.899368,113.2944,113.2529,90.44686
11176,Ag2Ga2S4,1.5027,122,6.676724,6.676724,6.676724,128.1076,128.1076,76.45078
11177,B48Mg4Si8,1.939,62,6.123696,8.395448,11.03116,90.0,90.0,90.0
11178,Al4Ge4O14,3.3521,15,5.331691,5.331691,9.82014,76.21987,76.21987,94.45263
11179,Er2O8V2,2.9553000000000003,141,5.962766,5.962766,5.962766,106.2988,106.2988,116.0213
11180,P4Sn2Zn2,0.6858000000000001,122,7.019955,7.019955,7.019955,132.0101,132.0101,70.21309
11181,Au1O3Ta1,0.5341,221,4.017995,4.017995,4.017995,90.0,90.0,90.0
11182,Dy2O38Ta14,3.3813,188,6.290748,6.290748,20.14353,90.0,90.0,120.001
11183,Na2S4Sb2,0.9195000000000001,15,5.887949,5.887949,6.891535,66.5397,66.5397,90.15281
11184,Ge2Mn2O6,1.6360000000000001,148,5.664928,5.664928,5.664928,53.58178,53.58178,53.58178
11185,Ca2Mo2O8,3.3439,88,6.890293,6.890293,6.890293,134.7652,134.7652,65.89519
11186,C2Mg2O6,4.9732,167,5.730829,5.730829,5.730829,48.37985,48.37985,48.37985
11187,Ba4Ge8P8,0.4923,105,7.709965,7.709965,8.602867,90.0,90.0,90.0
11188,Li2Nb2O6,3.4222,161,5.548833,5.548833,5.548833,56.03078,56.03078,56.03078
11189,O16Si4Zn8,3.0622,74,7.637177,7.637177,7.637177,136.1316,113.8954,82.76143
11190,Cl18P2Ti2,2.2411,2,9.298456999999999,9.86768,7.26936,96.47644,95.61456,101.5599
11191,Na2S4Sb2,0.8989,15,5.888213,5.888213,6.900433,66.86391,66.86391,90.63386
11192,Au4Cs4Se6,1.5135,15,8.445353,8.445353,7.400586,89.46763,89.46763,107.8279
11193,Cl16Rb8Zn4,4.7157,62,7.302246,9.390969,13.03324,90.0,90.0,90.00006
11194,Ge4Mg8O16,3.3519,62,4.97307,6.101898,10.43684,90.0,90.0,90.0
11195,Cl2K2O6,5.4671,11,5.720559,4.751612,7.244797,70.74566,90.0,90.0
11196,As1Rh1Ti1,1.1128,216,4.187002,4.187002,4.187002,60.0,60.0,60.0
11197,As4S16Tl12,1.674,62,9.266015,9.345164,11.11712,90.0,90.0,90.0
11198,Cu1O2Sc1,2.6391,166,6.045463,6.045463,6.045463,31.58039,31.58039,31.58039
11199,Ba1O3Ti1,2.1327,99,4.063698,4.063698,4.066501,90.0,90.0,90.0
11200,Br2N2Zr2,2.7596,164,3.502488,3.502488,12.88332,90.00399,89.99601,120.0
11201,B2F8Na2,7.8407,63,4.6908,4.6908,6.90847,90.0,90.0,95.17352
11202,Al2O6Pr2,3.9206000000000003,167,5.388464,5.36686,5.388464,59.86675,60.0,59.86675
11203,Al2Ce2O6,3.5883000000000003,167,5.383184,5.383184,5.383184,60.14368,60.14368,60.14368
11204,Fe2La2O6,1.0795,167,5.594821,5.59482,5.594811,61.14662,61.14714,61.14804
11205,H6Na2Pt1,3.4737999999999998,225,5.174056,5.174056,5.174056,60.0,60.0,60.0
11206,I10In2Pb4,1.8538000000000001,140,9.982363,9.982363,9.982363,126.5945,126.5945,78.91327
11207,O12P8S8,3.9646,120,9.888759,9.888759,9.888759,121.71,121.71,87.06281
11208,N12O6Si12,5.1612,15,12.79465,4.6749410000000005,4.707437,60.2281,90.0906,90.0
11209,Al4Mg2O8,5.1112,227,5.777302,5.777302,5.777302,60.0,60.0,60.0
11210,O16Rb4V6,1.7701,100,9.045952,9.045952,5.782167,90.0,90.0,90.0
11211,K2Sb2Zn2,0.6245,194,4.566427,4.566427,10.64538,90.0,90.0,120.0012
11212,Ba8Cr4O16,1.7545000000000002,62,5.999174,7.73343,10.72117,90.0,90.0,90.0
11213,B4Br24P4,2.6894,62,7.603391,11.94632,13.22481,90.0,90.0,90.0
11214,B12H12K2,5.5021,202,7.652414,7.652414,7.652414,60.0,60.0,60.0
11215,Cs10Ga6Se14,2.126,12,11.38479,11.38479,9.817596,75.41927,75.41927,71.21456
11216,Nd2O2Te1,1.6064,139,7.150923,7.150923,7.150923,146.8854,146.8854,47.53357
11217,Be12O24Si6,5.8241,2,7.7665500000000005,7.768511,9.127337,125.9568,121.7379,72.01525
11218,C2Na4O6,3.7646,12,5.221762,5.221762,6.176861,80.82029,80.82029,60.99825
11219,C2Ni2O6,3.0152,167,5.636714,5.636714,5.636714,48.70013,48.70013,48.70013
11220,As1Br3Ca3,1.665,221,5.962227,5.962227,5.962227,90.0,90.0,90.0
11221,Eu4Hf4O14,0.138,227,7.55183,7.55183,7.55183,60.0,60.0,60.0
11222,O3Sr1Tc1,0.1125,221,4.045254,4.045254,4.045254,90.0,90.0,90.0
11223,Li8O8Ti2,4.7326,63,5.492588,5.492588,6.24951,90.0,90.0,94.22385
11224,Ca3O12S3,5.6793,180,7.046128,7.046128,6.361397,90.0,90.0,120.0
11225,Fe3O7P1,1.9402,160,5.249095,5.249095,5.249095,101.8723,101.8723,101.8723
11226,Cd4O12Sn4,0.4471,62,5.605846,5.730702,8.122128,90.0,90.0,90.0
11227,Cu1F3Ni1,1.0565,221,3.956973,3.956973,3.956973,90.0,90.0,90.0
11228,Bi4F16K4,3.2588,227,8.396788,8.396788,8.396788,60.0,60.0,60.0
11229,Al2O8P2,5.4936,20,5.093452,5.093452,7.109603,90.0,90.0,90.05609
11230,Cd1In2Se4,0.9364,111,5.875289,5.875289,6.079967,90.0,90.0,90.0
11231,As1Co1O3,0.4179,221,3.6844770000000002,3.6844770000000002,3.6844770000000002,90.0,90.0,90.0
11232,O20V4Y8,1.3676,15,8.38015,8.38015,10.40187,61.43101,61.43101,48.98845
11233,Cl16Cs8Mg4,5.0233,62,13.75683,9.914696,7.636064,90.0,90.0,90.0
11234,In10Se14Tl2,0.3627,11,4.119124,9.585051,18.14976,79.06441,90.0,90.0
11235,Ge2Mg4O8,2.9902,227,7.941659,7.941659,7.941659,60.0,60.0,60.0
11236,Al2La2O6,3.3787000000000003,167,5.416041,5.420951,5.420951,60.0,59.97,59.97
11237,Cl18Mo2P2,0.9128000000000001,2,7.279724,9.303075,10.00153,101.1306,97.42178,94.78834
11238,Ce4N20Si12,3.4366,19,4.8287759999999995,7.895438,11.3529,90.0,90.0,90.0
11239,Ag4Cu4S4,0.5905,26,4.049548,6.655648,8.187906,90.0,90.0,90.0
11240,Ge2Mg2O6,2.4307,63,4.950323,4.950323,7.025807,90.0,90.0,146.5127
11241,Ba5O15Ta4,3.1008,164,5.869953,5.869948,12.02235,90.0001,90.0,120.0
11242,Br6Rb2Te1,2.0561,225,7.847182,7.847182,7.847182,60.0,60.0,60.0
11243,B6Na6O12,4.1423,167,7.258825,7.258825,7.258825,111.4282,111.4282,111.4282
11244,Cl12F8Sb4,1.7973,82,10.11219,10.11219,10.11219,98.01142,98.01142,136.1585
11245,Ba1O3Ti1,2.1374,221,4.059447,4.059447,4.059753,90.0,90.0,90.0
11246,Cs1F3Mg1,6.7047,221,4.252077,4.252077,4.252077,90.0,90.0,90.0
11247,Ga2Te4Tl2,0.4788,140,6.998049,6.998049,6.998049,104.1069,104.1069,120.8329
11248,F3Tl1Zn1,3.9216,221,4.136378,4.136378,4.136378,90.0,90.0,90.0
11249,Li8O8Pb2,1.4368,63,5.60212,5.60212,6.632694,90.0,90.0,98.12303
11250,Nb2O10P2,3.4737,85,6.48714,6.48714,4.118182,90.0,90.0,90.0
11251,Na10O20P6,4.5555,15,8.549006,8.549006,11.3234,86.75376,86.75376,35.95093
11252,As2Dy2O8,3.6191,141,5.975924,5.975924,5.975924,106.4414,106.4414,115.7174
11253,Bi1In1K2,0.3099,225,5.942719,5.942719,5.942719,60.0,60.0,60.0
11254,F2Gd2O2,4.5943000000000005,166,6.871251,6.871251,6.871251,32.91096,32.91096,32.91096
11255,O24Pb8Zr8,2.7851,55,5.995549,8.315637,11.952490000000001,90.0,90.0,90.0
11256,Cs2O7U2,2.564,12,7.725451,7.725451,7.5840879999999995,67.69797,67.69797,33.19878
11257,Pb1Sb2Te4,0.24480000000000002,166,14.34758,14.34758,14.34758,17.72064,17.72064,17.72064
11258,Ir4S4Sb4,1.1992,29,6.098604,6.083503,6.098352,90.0,90.0,90.0
11259,Co8Na20O18,1.5902,2,11.37276,8.425264,8.645004,59.91321,74.3854,70.65745
11260,Cs1F3Hg1,0.7233,221,4.674597,4.674597,4.674597,90.0,90.0,90.0
11261,Ni1O4Pr2,0.2841,69,6.857488,6.848384,3.401077,75.78071,75.48356,28.73573
11262,As2Ba1Mg2,1.0691,164,4.519763,4.519762,7.788867,89.99931,90.0007,120.0018
11263,Al4O8Zn2,4.4895,227,5.73161,5.73161,5.73161,60.0,60.0,60.0
11264,Br12Pb4Pd2,1.7328999999999999,14,6.870108,8.430686,9.733742,89.48027,90.0,90.0
11265,Nb6O20U2,2.3254,70,10.3027,8.836711,7.507387,77.68055,56.92476,45.37394
11266,Ba1O3Ti1,2.1373,221,4.05973,4.05973,4.059247,90.0,90.0,90.0
11267,K6N2O6,0.2021,108,7.38158,7.38158,7.38158,120.5886,120.5886,88.98356
11268,As16O56Sr16,3.3287,76,7.250862,7.250862,26.21699,90.0,90.0,90.0
11269,Br4O10Sb8,2.3733,14,5.249886,6.723527,13.81222,83.79306,90.0,90.0
11270,B12H12Tl2,4.5305,202,7.67059,7.67059,7.67059,60.0,60.0,60.0
11271,As1F6Rb1,4.9412,148,5.145074,5.145074,5.145074,96.97178,96.97178,96.97178
11272,Cr1Hf2Si1,0.0862,216,4.523745,4.523745,4.523745,60.0,60.0,60.0
11273,Ag2Hg1I4,1.3556,111,6.489261,6.544187,6.544187,90.0,90.0,90.0
11274,Al2F10Mn2,4.4954,63,5.331951,5.331951,9.688061,90.0,90.0,140.1512
11275,Ba4N16Si10,2.8762,31,5.82878,7.019972,9.466943,90.0,90.0,90.0
11276,Al4H16K4,5.0404,62,5.677908,7.270828,8.834218,90.0,90.0,90.0
11277,Cl6Mn2Na2,4.0802,148,7.36165,7.36165,7.36165,53.96311,53.96311,53.96311
11278,O16P4Zn6,4.066,15,4.9529689999999995,4.9529689999999995,15.39093,76.83445,76.83445,68.57435
11279,Cu2Ga2S4,1.1257,122,6.521139,6.521139,6.521139,131.2966,131.2966,71.34229
11280,Ga2Hg1S4,1.6112000000000002,82,6.54443,6.54443,6.54443,129.2273,129.2273,74.64516
11281,F3Li1Ti1,2.3307,221,3.719089,3.719089,3.719089,90.0,90.0,90.0
11282,B4Na8O10,3.7503,15,6.702157,6.702157,6.327046,74.02053,74.02053,74.0051
11283,Bi8O36W8,2.3139,33,5.48461,5.523118,24.39348,90.0,90.0,90.0
11284,Ge2Hf2Te8,0.3798,36,8.635143,8.635143,11.07886,90.0007,89.9993,153.0959
11285,Bi6Cl20Te4,1.3185,2,7.189561,11.0243,15.10357,105.2646,89.56406,72.1069
11286,Be1F3In1,2.3847,221,3.878635,3.878635,3.878635,90.0,90.0,90.0
11287,Al2O8P2,5.5004,20,5.08,5.08,7.083512,90.0,90.0,90.03333
11288,Ba1Sn1Te2,0.0767,225,5.848034,5.848034,5.848034,60.0,60.0,60.0
11289,O3Si1Tc1,1.5122,221,3.650759,3.650759,3.650759,90.0,90.0,90.0
11290,Ga1Mn1Zr2,0.15660000000000002,216,4.592841,4.592841,4.592841,60.0,60.0,60.0
11291,Ca4Nb4O14,1.7677,227,7.451117,7.451117,7.451117,60.0,60.0,60.0
11292,C1Li4O4,3.8929,160,4.689125,4.689125,4.689125,72.56037,72.56037,72.56037
11293,Ni4O14P4,0.8271000000000001,14,12.13246,4.703863,5.8308,64.67786,90.0,90.0
11294,Ru4Sb4Te4,0.625,14,6.601237,6.674118,6.739651,65.77419,90.0,90.0
11295,C3N6Sr3,3.2012,166,4.008797,4.008797,15.17231,90.00002,89.99998,120.0001
11296,O3Pb1Ti1,2.2131,99,3.961369,3.961369,4.205671,90.0,90.0,90.0
11297,Al4Cl16Na4,5.164,19,6.272606,10.02771,10.56097,90.0,90.0,90.0
11298,Cr2Gd2O8,0.1809,141,6.068218,6.068218,6.068218,105.888,105.888,116.9033
11299,Ca4Mn4O12,0.3875,62,5.331295,5.412478,7.567781,90.0,90.0,90.0
11300,Al2La2O6,3.6341,167,5.416083,5.416083,5.416083,60.15684,60.15684,60.15684
11301,In1Na1S2,1.9155000000000002,166,7.040998,7.040998,7.040998,31.66305,31.66305,31.66305
11302,C2Ca2O6,4.9896,167,6.488417,6.489046,6.489425,45.61953,45.60894,45.6187
11303,Na4O5U1,3.2047,87,5.873565,5.873565,5.873565,99.17364,99.17364,132.9332
11304,F3Ga1Mg1,3.7996,221,4.036034,4.036034,4.036034,90.0,90.0,90.0
11305,Ge2S8Sr4,2.3159,11,6.764862,6.77504,8.298417,71.8893,90.0,90.0
11306,I4Nb2O2,0.9342,5,8.428487,8.428483,7.612591,75.61912,75.61913,26.79904
11307,Al2F8K2,6.8543,127,5.161607,5.161607,6.292524,90.0,90.0,90.0
11308,Lu2O8P2,5.9878,141,5.671193,5.671193,5.671193,106.0416,106.0416,116.5725
11309,B2O6U1,3.7942,5,5.86234,5.86234,5.83679,69.97989,69.97989,42.58461
11310,Ca4O12Zr4,3.8224,62,5.832959,5.636201,8.101937,90.0,90.0,90.0
11311,K4Pt2S30,1.9101,9,9.194055,9.194055,13.24884,88.29376,88.29376,67.06668
11312,Ba2F8Zn2,5.7349,36,7.62944,7.62944,5.867538,90.0,90.0,147.8664
11313,Ga8Se16Tl8,1.2861,15,7.738321,7.738321,15.87802,82.88588,82.88588,90.0057
11314,Fe4O14Rb16,1.5277,14,17.75054,7.032002,7.077455,60.98078,89.99847,90.00097
11315,Li4O6Si2,5.0796,36,5.4485,5.4811119999999995,4.723754,90.0,90.0,119.8087
11316,Br16N8P8,2.4869,86,13.57454,13.57454,8.461065,90.0,90.0,90.0
11317,Ge2Li8O8,4.0457,63,5.416557,5.416557,6.13748,90.0,90.0,93.42717
11318,Co8P8Se8,0.7394000000000001,61,5.603697,5.685535,11.23103,90.0,90.0,90.0
11319,Cl32Li4Nb12,0.9275,64,9.343134,9.343134,13.63509,90.0,90.0,91.87398
11320,Br6Rb2Te1,2.0774,225,7.859243,7.859243,7.859243,60.0,60.0,60.0
11321,Be4F16Rb8,6.0924,33,5.871248,9.813662,9.591876,90.0,90.0,90.0
11322,Mo2Ti1Zn1,0.1342,216,4.444637,4.444637,4.444637,60.0,60.0,60.0
11323,P4Si2Zn2,1.3662,122,6.488397,6.488397,6.488397,130.7115,130.7115,72.27179
11324,Cl4La4Se4,1.2875,62,4.385295,7.70611,9.247756,90.0,90.0,90.0
11325,C4O16Pb8,3.4267,19,5.247592,9.635992,9.510853000000001,90.0,90.0,90.0
11326,Al4H4O8,3.964,59,3.647288,2.919391,14.71566,90.0,90.0,90.0
11327,Be2Ca1P2,0.7307,164,3.74383,3.74383,6.608961,90.00003,89.99997,119.9995
11328,Eu1P2Zn2,0.008700000000000001,164,4.075558,4.075558,7.0405429999999996,89.98309,90.01691,120.004
11329,Cd4O8Sn2,0.3536,55,3.277596,5.678329,10.11638,90.0,90.0,90.0
11330,Ce6Pt6Sb8,0.44170000000000004,220,8.497446,8.497446,8.497446,109.4712,109.4712,109.4712
11331,O8Si2Zr2,4.4644,141,5.620693,5.620693,5.620693,106.7528,106.7528,115.0567
11332,Ba8O28P8,5.1457,62,5.696163,9.422954,14.01531,90.0,90.0,90.0
11333,H3K1Mg1,2.4989,221,4.006021,4.006021,4.006021,90.0,90.0,90.0
11334,Cd2Ge2P4,0.6898000000000001,122,6.844435,6.844435,6.844435,129.7151,129.7151,73.86266
11335,Cl12Mg4Rb4,4.753,194,7.204717,7.204717,11.99654,90.0,90.0,120.0008
11336,Sb1Te2Tl1,0.1457,166,8.34168,8.34168,8.34168,31.25282,31.25282,31.25282
11337,Fe4Mo8S16,0.6681,9,6.862767,6.862767,13.29125,69.43569,69.43569,58.38108
11338,Al3O12P3,5.6416,152,5.030882,5.030875,11.06652,89.99998,90.00001,120.0007
11339,As4S4Tb4,0.0755,62,17.08247,3.869385,3.840869,90.00044,90.0,90.0
11340,Ba3O8P2,5.1471,166,7.856932,7.856932,7.856932,42.42888,42.42888,42.42888
11341,Fe3O12P3,2.5217,152,5.17387,5.173466,11.52096,89.99911,90.00265,120.0044
11342,Cu4K4O4,1.5525,139,7.196417,7.196417,7.196417,98.54327,98.54327,134.6591
11343,Bi4Nb4O16,2.6421,2,5.610211,7.785572,7.941369,101.8605,90.09169,93.0704
11344,Eu1O3Ti1,0.7501,221,3.969357,3.969357,3.969357,90.0,90.0,90.0
11345,H1Se1Y1,1.5176,187,3.847358,3.847419,3.923945,90.0,90.0,119.9995
11346,Ca4O12Si4,3.5652,139,6.248609,6.248609,6.248609,109.3468,109.3468,109.7204
11347,Na2O3Ti1,1.8268,71,5.772253,5.772253,5.772253,149.326,136.7413,53.95996
11348,F12Li4Mo2,1.2256,136,4.785707,4.785707,9.323058,90.0,90.0,90.0
11349,Ba1O3Ti1,2.1365,221,4.060077,4.060077,4.059917,90.0,90.0,90.0
11350,Cr2O8Tb2,0.6602,88,6.743365,6.743365,6.743365,135.8535,135.8535,64.20695
11351,Na12S8Zn2,2.3049,186,8.921903,8.921236,6.897679,90.0,90.0,120.0025
11352,F3In1Mg1,2.8996,221,4.135561,4.135561,4.135561,90.0,90.0,90.0
11353,Na1O2Sc1,4.3746,166,5.808472,5.808472,5.808472,32.24266,32.24266,32.24266
11354,Ge2P4Zn2,1.2521,122,6.659331,6.659331,6.659331,131.3594,131.3594,71.24268000000001
11355,P4Si2Zn2,1.3658000000000001,122,6.488222,6.488222,6.488222,130.7101,130.7101,72.27411
11356,Cd1Ga2S4,2.2208,82,6.501718,6.501718,6.501718,128.792,128.792,75.34546
11357,Ag2S6Ta2,0.0666,36,7.384169,7.384169,7.843247,90.0,90.0,153.2083
11358,O6Pb2S2,3.215,11,5.412659,4.573862,6.505718,73.54386,90.0,90.0
11359,Co2O12Ta4,3.0616,136,4.807735,4.807735,9.268858,90.0,90.0,90.0
11360,In8P16Rb24,0.47800000000000004,2,16.05608,9.571971,12.661200000000001,74.01103,73.10099,72.64268
11361,Gd8O28Si8,4.6179,14,6.76512,6.775429,13.89404,65.47811,90.0,90.0
11362,Al3O12P3,5.6371,152,5.028828,5.02845,11.11799,90.00418,89.99825,120.0068
11363,Bi2Fe2O6,1.6688,161,5.740229,5.740229,5.740229,58.89916,58.89916,58.89916
11364,In1P1S4,2.4203,82,6.162801,6.162801,6.162801,123.709,123.709,83.68761
11365,F8H40N16,5.4504,19,4.636725,8.370668,12.18685,90.0,90.0,90.0
11366,Cu1F3Zn1,0.9929,221,3.918043,3.918043,3.918043,90.0,90.0,90.0
11367,Ba8Cd4Te12,1.4391,62,4.812838,9.990639,19.33541,90.0,90.0,90.0
11368,Ag7F31Zr6,4.2625,148,8.832834,8.832834,8.832834,106.8532,106.8532,106.8532
11369,Cd4Cl12Rb4,3.6169000000000002,62,4.106658,9.112043,15.27449,90.0,90.0,90.0
11370,Cd32Cl24P16,1.3672,205,12.34528,12.34528,12.34528,90.0,90.0,90.0
11371,Ag8K4S6,0.5544,12,9.057484,9.057484,11.77793,72.25741,72.25741,27.95559
11372,Co4Er4Sn4,0.183,62,4.574701,7.2751149999999996,7.307432,90.0,90.0,90.0
11373,Cu2Ga2Se4,0.4163,122,6.883146,6.883146,6.883146,131.1997,131.1997,71.49597
11374,Ca12In4P12,1.0032,62,4.156193,12.0844,13.55183,90.0,90.0,90.0
11375,Co8S8Sb8,0.5721,61,5.853925,5.990898,11.70555,90.0,90.0,90.0
11376,Ca1H2O2,4.0964,164,3.621384,3.621454,4.956339,90.00298,90.0,119.9994
11377,B4H24N4,5.866,4,5.533137,6.92218,7.146608,84.19418,90.0,90.0
11378,Au2Br6Rb2,1.1099,12,6.298541,6.298541,9.536797,88.747,88.747,81.76363
11379,As1Fe2Sc1,0.13470000000000001,225,4.166347,4.166347,4.166347,60.0,60.0,60.0
11380,Al1Au1Hf1,0.36760000000000004,216,4.429034,4.429034,4.429034,60.0,60.0,60.0
11381,Al2Na6P4,1.4019,72,8.019745,8.019745,8.019745,135.749,130.02,68.94003
11382,Cl20K8Pr4,4.0106,62,8.170723,8.855479,12.99672,90.0,90.0,90.0
11383,H1Ho1Se1,1.4943,187,3.817657,3.817657,3.891573,90.0,90.0,119.9994
11384,As1Ru1Ta1,0.4242,216,4.226096,4.226096,4.226096,60.0,60.0,60.0
11385,Cl2Cr2O2,1.7013,59,3.249059,3.936427,8.196827,90.0,90.0,90.0
11386,Cu4O12Se4,1.1628,62,5.470752,6.149095,7.316358,90.0,90.0,90.0
11387,Br6Rb2Sn1,1.1372,225,7.836371,7.836371,7.836371,60.0,60.0,60.0
11388,Pb1Ru1Sc2,0.1925,216,4.774341,4.774341,4.774341,60.0,60.0,60.0
11389,O3Pb1Ti1,2.1813000000000002,221,4.000022,4.000022,4.000022,90.0,90.0,90.0
11390,O36V8Zn16,2.7779,4,8.135157,9.614678,10.40395,62.92608,90.0,90.0
11391,Cl4K4O12,5.5116,62,5.033467,5.376086,13.32224,90.0,90.0,90.0
11392,Cr4I12Rb4,1.3359,5,8.111054,8.111054,14.67722,83.58711,83.58711,60.43223
11393,Ca4O14Os4,0.0651,74,7.327366,7.327366,7.327366,120.2065,118.5729,91.06607
11394,Cd1F3Rb1,3.4658,221,4.487407,4.487407,4.487407,90.0,90.0,90.0
11395,As3Ga3O12,3.1056,152,5.077118,5.077093,11.59492,90.00255,89.99775,120.0046
11396,C1I12Zr6,0.28300000000000003,148,9.333438,9.333438,9.333438,106.7547,106.7547,106.7547
11397,Gd4O14Ti4,3.2737,227,7.294003,7.294003,7.294003,60.0,60.0,60.0
11398,Fe2La8S14,1.6825999999999999,4,9.935468,10.14654,6.997243,90.0,90.0,118.9682
11399,As8Na8O16,3.5858,61,5.161802,6.80791,15.31681,90.0,90.0,90.0
11400,Ge2Mg2O6,3.633,148,5.468035,5.468035,5.468035,54.53427,54.53427,54.53427
11401,Al2F10Tl4,4.0921,63,6.394718,6.394718,7.545891,90.0,90.0,91.58455
11402,Dy6O14Re2,0.34740000000000004,20,6.450125,6.450125,7.499563,90.0,90.0,109.8659
11403,Al2Fe1S4,1.5737999999999999,166,12.81375,12.81375,12.81375,16.55565,16.55565,16.55565
11404,Cu6O38Ta14,1.6288,176,6.313031,6.312748,20.47556,89.99979,90.00005,120.0018
11405,Al2Cl16Nb2,2.2816,63,9.870434,9.870434,8.700813,90.0,90.0,128.1146
11406,K2O13Ti6,3.2056,12,8.20198,8.20198,9.302694,80.46718,80.46718,27.33801
11407,O12Se4Zn4,3.7493,62,5.078808,5.904612,7.67135,90.0,90.0,90.0
11408,S8Tl1V5,0.389,12,9.29645,9.29645,8.630951,74.7326,74.7326,22.05837
11409,As2Ca1O6,3.3151,162,4.9178,4.917713,5.14638,90.00051,89.99898,120.0006
11410,Br2Lu2S2,2.8282,59,3.906144,5.243458,8.012134,90.0,90.0,90.0
11411,Au2La1Sc1,0.1709,216,4.946229,4.946229,4.946229,60.0,60.0,60.0
11412,P2Sr1Zn2,0.8856,164,4.085756,4.085705,7.07969,89.99946,90.00015,120.0009
11413,Ga2H8Na2,4.6943,63,4.771162,4.771162,7.07509,90.0,90.0,94.68598