,full_formula,band_gap,spacegroup.number,structure.lattice.a,structure.lattice.b,structure.lattice.c,structure.lattice.alpha,structure.lattice.beta,structure.lattice.gamma
10628,Na8O28W8,3.8452,64,7.095071,7.095071,15.02402,90.0,90.0,117.8207
10629,Cr1O3Y1,1.5958999999999999,221,3.85434,3.85434,3.85434,90.0,90.0,90.0
10630,Ba3O8P2,5.1576,166,7.853543,7.853543,7.853543,42.43758,42.43758,42.43758
10631,Ba4Se8Si2,2.2661,11,7.119065,7.041893,9.333176,71.39873,90.0,90.0
10632,Cu1Na1O2,1.3382,12,5.298494,2.770393,5.4666,75.31832,79.38289,38.3472
10633,Fe4O16P4,2.0247,62,4.881032,5.896055,9.938506,90.0,90.0,90.0
10634,Mo2Na4O8,4.28,227,6.527522,6.527522,6.527522,60.0,60.0,60.0
10635,Cd2O7V2,2.6297,12,5.806453,5.806453,5.09324,81.9196,81.9196,104.0527
10636,N4O2Si4,4.9608,36,5.265341,5.265341,4.887115,90.0,90.0,116.6253
10637,Al4Mg2O8,5.1106,227,5.7773319999999995,5.7773319999999995,5.7773319999999995,60.0,60.0,60.0
10638,Li2Nb2O6,3.4599,161,5.546923,5.546923,5.546923,55.90961,55.90961,55.90961
10639,Li2N1Na1,2.1722,225,3.823169,3.823169,3.823169,60.0,60.0,60.0
10640,Cd1F3Li1,1.6315,221,3.7485,3.7485,3.7485,90.0,90.0,90.0
10641,K28Li4Si32,1.7006000000000001,205,12.5574,12.5574,12.5574,90.0,90.0,90.0
10642,Ag4Cl4O8,1.3822,54,6.28009,6.283728,7.075624,90.0,90.0,90.0
10643,Cr1In1Rh1,0.2107,216,4.256511,4.256511,4.256511,60.0,60.0,60.0
10644,As4Si2Zn2,1.1185,122,6.806852,6.806852,6.806852,130.8654,130.8654,72.02694
10645,Ga1O3Sc1,1.7164000000000001,221,3.781906,3.781906,3.781906,90.0,90.0,90.0
10646,C1Cs4O4,0.41490000000000005,8,5.96368,5.96368,7.944371,77.32431,77.32431,91.88538
10647,F2O2Tb2,4.9388000000000005,166,6.773559,6.773559,6.773559,32.9452,32.9452,32.9452
10648,Cd6Cl6P2,1.8232,164,7.773406,7.77342,7.1858,89.99981,90.0002,120.002
10649,Cl6Mn1Rb2,0.6149,225,7.186121,7.186121,7.186121,60.0,60.0,60.0
10650,P2S6Tl2,1.7219,71,7.118972,7.118972,7.118972,120.2544,108.9157,99.90311
10651,F2I2Pb2,2.0705,129,4.244001,4.244001,9.469576,90.0,90.0,90.0
10652,Nd4O14Zr4,3.3148,227,7.6520600000000005,7.6520600000000005,7.6520600000000005,60.0,60.0,60.0
10653,F28Ho8K4,6.9115,8,8.272408,8.272408,12.02749,59.76366,59.76366,58.30327
10654,Al2O6Pr2,3.9143,167,5.367479,5.367479,5.367479,60.25698,60.25698,60.25698
10655,Al1F3Ge1,1.02,221,4.429942,4.429942,4.429942,90.0,90.0,90.0
10656,K1P3Zn4,0.6636000000000001,166,11.61403,11.61403,11.61403,19.91657,19.91657,19.91657
10657,Ca4O12Si4,3.5628,204,6.253189,6.253189,6.253189,109.4712,109.4712,109.4712
10658,Ba4N8Si4,2.9189,64,6.454364,6.454364,7.644181,90.0,90.0,128.0496
10659,Ga2Mn1S4,2.31,82,6.487731,6.487731,6.487731,129.7364,129.7364,73.82858
10660,H2Nd2O4,3.7498,11,3.872481,4.150438,6.660085,66.4158,90.0,90.0
10661,C2Li8O8,4.0893,8,6.69731,4.681553,6.105735,74.07693,90.0,90.0
10662,Ba3O15Ti6,0.6328,12,5.249302,5.249302,21.42219,69.97519,69.97519,43.17173
10663,Ir2O18P6,3.0225,2,5.120644,7.068824,10.48647,98.27214,92.32255,92.53201
10664,Au8Br8Se8,0.38280000000000003,62,7.051599,7.633255,12.16681,90.0,90.0,90.0
10665,Li2Sb2Zn2,0.5205000000000001,186,4.448446,4.4484200000000005,7.183176,90.0,90.0,120.0002
10666,Ga8Li40O32,3.8374,61,9.176862,9.251175,9.277537,90.0,90.0,90.0
10667,Ag4O12V4,2.0481,8,9.510065,9.510065,8.205353,75.32046,75.32046,21.88477
10668,O16Rb16Zn8,1.7442000000000002,14,6.398937,9.580031,14.269,81.07416,90.0,90.0
10669,Fe2Sb1Y1,0.131,225,4.51195,4.51195,4.51195,60.0,60.0,60.0
10670,Co1Sb1Ti1,0.8156,216,4.162828,4.162828,4.162828,60.0,60.0,60.0
10671,H10K6Zn2,3.6969000000000003,140,7.6988579999999995,7.6988579999999995,7.6988579999999995,121.7946,121.7946,86.91873
10672,Cr2Ho2O8,0.1904,141,5.967662,5.967662,5.967662,105.9963,105.9963,116.6699
10673,Ca2O6Si2,3.6909,74,5.099278,5.099425,5.099188,119.9424,119.6669,90.3389
10674,F6Li2Zr1,6.4887,162,5.079175,5.079175,4.72894,90.00131,90.00131,120.0033
10675,Ba4Br4Cl4,4.9342,62,5.063047,8.152055,10.32071,90.0,90.0,90.0
10676,F3Li1Mn1,1.426,221,4.1819,4.1819,4.1819,90.0,90.0,90.0
10677,B6Cr1H16,2.3325,2,6.023494,4.510514,9.261731,78.61464,69.99636,67.15436
10678,Ag6As2S6,1.43,161,7.021949,7.021949,7.021949,102.6246,102.6246,102.6246
10679,As8Na16Ti2,1.0531,227,9.769073,9.769073,9.769073,60.0,60.0,60.0
10680,Cu6O18Si6,1.2707,148,8.821373,8.821373,8.821373,111.6825,111.6825,111.6825
10681,Ca8O16Si4,4.2565,14,6.074786,5.607844,12.13463,84.6022,90.0,90.0
10682,C24Mo4O24,3.2341,62,6.667738,11.817730000000001,12.47099,90.0,90.0,90.0
10683,Li2O3Pr1,2.0102,65,5.371808,5.371808,3.555566,90.0,90.0,130.234
10684,K6Si2Te6,1.7119,12,8.49279,8.49279,8.982531,74.71186,74.71186,109.7282
10685,Nd4O14Ru4,0.5162,227,7.432316,7.432316,7.432316,60.0,60.0,60.0
10686,As1Li1Mg1,1.3689,216,4.387439,4.387439,4.387439,60.0,60.0,60.0
10687,Ca2N2Zn1,0.6862,139,6.766477,6.766477,6.766477,149.2007,149.2007,44.11601
10688,F3Na1Rh1,1.3354,221,4.070133,4.070133,4.070133,90.0,90.0,90.0
10689,Cu3S4V1,1.2808,215,5.438514,5.438514,5.438514,90.0,90.0,90.0
10690,Dy2O8Ta2,4.1804,13,5.5203109999999995,5.168972,5.35416,83.26638,90.0,90.0
10691,Cu8O32Re8,1.8366,110,10.61356,10.61356,10.61356,97.84625,97.84625,136.6329
10692,C24Cu20Na4,2.0874,62,7.2526209999999995,7.438125,10.94238,90.0,90.0,90.0
10693,Al2B2O6,5.8299,167,5.314667,5.314667,5.314667,50.14911,50.14911,50.14911
10694,Cr2F10Mn2,2.2764,15,5.430128,5.430128,7.531549,69.70597,69.70597,72.4245
10695,Li12Mo2N8,2.7071,137,6.701988,6.701988,4.945042,90.0,90.0,90.0
10696,Ag24O28Si8,0.5523,4,9.936821,5.407112,16.21371,89.76289,90.0008,89.99946
10697,Ba12S28Zr8,0.8198000000000001,136,7.169395,7.169395,25.55254,90.0,90.0,90.0
10698,Bi2Fe2O6,1.6702,161,5.749648,5.749648,5.749648,58.76986,58.76986,58.76986
10699,Mo4N14Sr10,1.3919000000000001,2,9.335395,9.391956,6.49062,96.91911,89.46009,115.1771
10700,Al8O20Si4,4.8352,58,5.61506,7.869923,7.971727,90.0,90.0,90.0
10701,Ho2O2Se1,2.1444,164,3.8294319999999997,3.829421,6.816191,89.99917,89.99948,120.0005
10702,Nb1Pt2Y1,0.1262,216,4.67512,4.67512,4.67512,60.0,60.0,60.0
10703,Br10K2Sn4,2.3604,140,9.63783,9.63783,9.63783,127.7356,127.7356,77.05372
10704,Ca1F3Rb1,1.7468,221,4.915712,4.915712,4.915712,90.0,90.0,90.0
10705,Fe2Nb2O8,2.2029,13,5.060961,4.699927,7.379474,50.43956,90.17583,90.27608
10706,Cl24Ga8Li8,3.723,62,6.209494,9.833624,15.25614,90.0,90.0,90.0
10707,Na1Nb1O3,1.837,221,3.9866200000000003,3.9866200000000003,3.9866200000000003,90.0,90.0,90.0
10708,Ge4Pt4S4,0.9082,29,5.900885,5.924523,5.963804,90.0,90.0,90.0
10709,Bi2O8P2,3.8184,11,7.221199,4.799999,4.90184,83.10668,90.0,90.0
10710,B4H16Mg2,6.5592,119,7.646627,7.646627,7.646627,115.2177,115.2177,98.50416
10711,Ba2Ni2O6,1.4432,194,5.714933,5.714977,4.833396,90.0,90.0,120.0011
10712,Rb4S6Si2,2.8262,12,7.625515,7.625515,9.754718,58.65992,58.65992,54.54074
10713,Ba2I12U2,2.1811,9,8.467354,8.467354,15.508420000000001,84.08037,84.08037,120.0069
10714,F8O4Te4,4.2107,4,8.362876,5.465934,5.811443,82.71828,90.0,90.0
10715,Bi2Fe2O6,1.6656,161,5.738158,5.738158,5.738158,58.91163,58.91163,58.91163
10716,Cd12K8Te16,1.4926,62,7.421112,11.5289,15.31425,90.0,90.0,90.0
10717,Ag2Cr1Pt1,0.008,216,4.4694,4.4694,4.4694,60.0,60.0,60.0
10718,Br2Eu6O8,0.2315,63,6.563112,6.569669,11.98071,90.0,90.0,142.9022
10719,Ba2Cl2F2,5.4467,129,4.450803,4.450803,7.334223,90.0,90.0,90.0
10720,Mo2O8Sr2,3.6643,88,7.228335,7.228335,7.228335,135.3801,135.3801,64.94013
10721,Ag1C2Li1,1.8915000000000002,187,3.834748,3.834748,5.404412,90.0,90.0,120.0005
10722,F38Li6Zr8,5.5227,2,11.17496,5.534367,12.97835,87.55313,108.813,105.8601
10723,Ag4In4S8,1.0415,33,6.815656,7.125895,8.433388,90.0,90.0,90.0
10724,Mn4O10Sr4,0.1242,55,3.856824,5.627489,11.02529,90.0,90.0,90.0
10725,C8N8S12,2.5857,62,4.532974,10.23823,13.27368,90.0,90.0,90.0
10726,Bi8O24W4,2.154,29,5.529655,5.569434,16.95536,90.0,90.0,90.0
10727,O3Si1Ti1,1.6199,221,3.899721,3.899721,3.899721,90.0,90.0,90.0
10728,F3K1Si1,0.6462,221,4.6354,4.6354,4.6354,90.0,90.0,90.0
10729,Cr2Hg1Zr1,0.0845,216,4.55064,4.55064,4.55064,60.0,60.0,60.0
10730,Nb2O10P2,3.4655,85,6.488247,6.488247,4.124029,90.0,90.0,90.0
10731,Mg2P4Si2,1.3899,122,6.548759,6.548759,6.548759,128.0278,128.0278,76.57994
10732,H6O6Y2,3.7126,176,6.346408,6.346469,3.56867,90.0,90.0,120.0
10733,Co1In1W1,0.2393,216,4.135155,4.135155,4.135155,60.0,60.0,60.0
10734,Er6I10Ni1,0.5337000000000001,2,7.654229,9.604329,9.62871,106.9731,96.94465,104.5804
10735,Bi1O3Sc1,0.6582,221,4.112238,4.112238,4.112238,90.0,90.0,90.0
10736,Ag2Ga2Te4,0.5152,122,7.638502,7.638502,7.638502,129.8974,129.8974,73.57088
10737,Li2N1Na1,2.1619,225,3.823519,3.823519,3.823519,119.9471,119.9471,90.09165
10738,Mn2O6Ti2,2.7056,148,5.699021,5.699021,5.699021,54.71265,54.71265,54.71265
10739,As6Na6O18,2.8379000000000003,2,8.235599,7.607172,7.460407,90.19606,92.46675,103.538
10740,Nb8O24Sr4,2.9582,14,5.665389,7.741097,11.18001,89.86075,90.0,90.0
10741,C2Ca2O6,5.0016,167,6.445981,6.445981,6.445981,46.11148,46.11148,46.11148
10742,Cd2O8W2,3.0855,13,6.004455,5.088169,5.152855,88.42913,90.0,90.0
10743,Pb8Se16Si4,1.7197,14,7.318466,8.765499,13.97842,71.59176,90.0,90.0
10744,Bi2Pb1Te4,0.4927,166,14.45873,14.45873,14.45873,17.92238,17.92238,17.92238
10745,La1Rb1S2,2.4036,166,8.113558,8.113558,8.113558,31.00771,31.00771,31.00771
10746,F16O16Sb16,3.3387000000000002,61,5.77762,11.75862,12.67135,90.0,90.0,90.0
10747,As1Ga1Li2,0.0451,225,4.539516,4.539516,4.539516,60.0,60.0,60.0
10748,B4Rb4Se12,1.5162,14,12.7228,6.264326,7.518658,74.52834,90.0,90.0
10749,Cl6K2Pt1,1.9793,225,7.076725,7.076725,7.076725,60.0,60.0,60.0
10750,K3Mn1O4,1.8652000000000002,121,6.12895,6.12895,6.12895,120.3361,120.3361,89.41882
10751,F6Pd1Rb2,2.8423,225,6.224819,6.224819,6.224819,60.0,60.0,60.0
10752,Au4Ba2O8,1.6886999999999999,88,6.957372,6.957372,6.957372,123.7212,123.7212,83.66709
10753,O16P4Tb4,2.9626,2,6.945013,8.560531,7.23211,53.04773,90.06629,89.97695
10754,Br6Pd1Rb2,0.5408000000000001,225,7.533134,7.533134,7.533134,60.0,60.0,60.0
10755,Gd8O16Sr4,3.4086,62,3.490803,10.2621,12.16196,90.0,90.0,90.0
10756,Ca1Se2Sn1,0.21580000000000002,225,5.237268,5.237268,5.237268,60.0,60.0,60.0
10757,Br3Cs1Pb1,1.7537,221,5.992794,5.997117,5.997117,90.0,90.0,90.0
10758,Br4F32Sb6,2.6564,15,7.904113,7.904113,14.86511,85.497,85.497,60.14092
10759,As1K1Zn1,0.3912,187,4.236324,4.236324,5.244197,90.0,90.0,119.9973
10760,Ca1Cs1F3,6.8989,221,4.582697,4.582697,4.582697,90.0,90.0,90.0
10761,Dy1S2Tl1,1.5225,166,7.888402,7.888402,7.888402,29.6225,29.6225,29.6225
10762,Cr4F24Na4,1.3282,62,5.9834700000000005,7.939304,9.661094,90.0,90.0,90.0
10763,Mn2S8Sc4,1.3737,227,7.62667,7.62667,7.62667,60.0,60.0,60.0
10764,K1N1O3,2.9795,160,4.428508,4.428503,4.428218,77.91853,77.91861,77.93141
10765,La4O14Ti4,2.833,36,13.28135,13.28135,5.609587,90.0,90.0,162.6749
10766,Li12O16P4,5.7298,62,4.989997,6.190797,10.613,90.0,90.0,90.0
10767,B1Rh1Sc2,0.46580000000000005,216,4.333972,4.333972,4.333972,60.0,60.0,60.0
10768,Cu2K2O4,1.1942,63,6.277872,6.277872,5.468718,90.0,90.0,138.61
10769,Ag16Ge2Se12,0.1817,31,7.907576,8.074691,11.1661,90.0,90.0,90.0
10770,F14Ni2Rb6,0.7662,127,8.131266,8.131266,5.94494,90.0,90.0,90.0
10771,Cu2O4Sc2,2.6404,194,3.290183,3.290168,11.47647,90.0,90.0,120.0002
10772,F4H4O4,3.2153,19,4.583869,4.735359,6.240558,90.0,90.0,90.0
10773,Cu2F7K3,0.606,139,10.66937,10.66937,10.66937,157.2548,157.2548,32.38519
10774,Al1F3Pd1,0.9617,221,4.370866,4.370866,4.370866,90.0,90.0,90.0
10775,Br12O4P4,3.0846,62,6.5162700000000005,10.22712,10.55745,90.0,90.0,90.0
10776,Fe4O12Te2,1.1176,136,4.683892,4.683892,9.217665,90.0,90.0,90.0
10777,Na2O19Ti9,2.6138,12,6.516036,6.516036,15.81445,76.5498,76.5498,34.55406
10778,Ca4Ge14O32,2.7969,117,11.51416,11.50913,4.718983,90.0,90.0,90.00041
10779,Ba2Cl1N1,1.1134,166,8.057811,8.057811,8.057811,29.88442,29.88442,29.88442
10780,In1Mn1Ti2,0.0483,216,4.486828,4.486828,4.486828,60.0,60.0,60.0
10781,Al3O12P3,5.6317,152,5.032099,5.032123,11.15063,90.00047,89.99991,119.9997
10782,O28P8Pb8,3.6335,2,7.087699,7.166061,12.98743,84.18084,91.12432,89.40327
10783,Er8O48S12,5.8907,60,9.356957,9.238092,12.88407,90.0,90.0,90.0
10784,O8V2Y2,2.9537,141,6.01823,6.01823,6.01823,106.227,106.227,116.175
10785,K4O20Sb12,3.1226,14,14.20318,7.170888,7.6463149999999995,67.65541,90.0,90.0
10786,Cu2Ga2S4,1.1331,122,6.513845,6.513845,6.513845,131.249,131.249,71.41777
10787,B6Rb6S12,2.8162000000000003,167,9.795052,9.795052,9.795052,110.6629,110.6629,110.6629
10788,Ag2In2Te4,0.4011,122,7.949895,7.949895,7.949895,130.8104,130.8104,72.11441
10789,F3Mg3N1,3.5768,221,4.262359,4.262359,4.262359,90.0,90.0,90.0
10790,O20P4Ta4,3.1621,11,5.4216429999999995,6.789758,11.4505,89.88351,90.0,90.0
10791,F6K2Mn2,2.7063,140,6.031878,6.031878,6.028633,60.0178,60.0178,59.96441
10792,Cr4La4O12,2.076,62,5.621275,5.603083,7.922728,90.0,90.0,90.0
10793,O2Rb1Sc1,3.5536,166,6.761105,6.761105,6.761105,28.43345,28.43345,28.43345
10794,Bi2I2O2,1.5211000000000001,129,4.027137,4.027137,9.704026,90.0,90.0,90.0
10795,Cl12O2Sr8,4.58,186,9.574664,9.574672,7.296967,90.00026,89.99975,120.0014
10796,B4F28S4,4.956,62,5.9396,9.263663,10.03664,90.0,90.0,90.0
10797,F4K2Ni1,3.8183,139,7.213337,7.213337,7.213337,147.1807,147.1807,47.09636
10798,Ba2Fe4Se6,0.6098,63,8.01056,8.01056,5.459614,90.0,90.0,106.0529
10799,Ca2F8Pd2,2.2216,140,6.680308,6.680308,6.680308,130.2773,130.2773,72.96377
10800,Ba16N24Nb8,1.9907,15,11.97516,6.243192,13.3701,88.74274,90.0,90.0
10801,Ga1Rh1Sc2,0.38120000000000004,216,4.583837,4.583837,4.583837,60.0,60.0,60.0
10802,Ca8Mn4O16,0.34490000000000004,142,12.79209,12.79209,12.79209,156.3141,156.3141,33.74448
10803,F3Na1Ni1,3.6444,221,3.997579,3.997579,3.997579,90.0,90.0,90.0
10804,Ag6P2S8,1.4312,31,6.6691009999999995,6.950882,7.867109,90.0,90.0,90.0
10805,B8H32Mg4,6.1164,70,8.244403,8.194819,7.727937,62.28473,61.63442,56.07948
10806,Al10B2O18,4.9384,36,8.109918,8.109918,7.7651769999999996,90.0,90.0,138.6458
10807,I8Tl4Zn2,2.9784,4,8.218099,7.898138,9.587518,72.13874,90.0,90.0
10808,Cd1Sn1Sr1,0.0927,216,5.222938,5.222938,5.222938,60.0,60.0,60.0
10809,K4Mn4O16,2.0568,62,5.825617,7.585161,9.306288,90.0,90.0,90.0
10810,Ca12O36Si12,4.7087,15,6.918236,6.917941,19.79087,89.66955,89.6692,120.0948
10811,Na3Sb1Se4,0.9729000000000001,217,6.539876,6.539876,6.539876,109.4712,109.4712,109.4712
10812,Ga4Pb2Se8,1.7591,66,6.313566,6.313566,11.03277,90.0,90.0,119.8626
10813,Cl8O8U4,2.6393,62,6.089219,8.525014,8.875788,90.0,90.0,90.0
10814,Na10Nb2O10,2.5966,15,6.048079,6.048079,10.1131,81.31416,81.31416,116.7847
10815,F3Li1Ru1,1.2691,221,4.198182,4.198182,4.198182,90.0,90.0,90.0
10816,La4O14Zr4,3.8106,227,7.747518,7.747518,7.747518,60.0,60.0,60.0
10817,Nb4P8S32,1.5110000000000001,118,12.25895,12.25895,7.759628,90.0,90.0,90.0
10818,Cd1F3K1,3.3976,221,4.456849,4.456849,4.456849,90.0,90.0,90.0
10819,Cr1K3O8,1.8085,121,6.202661,6.202661,6.202661,113.1668,113.1668,102.3088
10820,Cl6K2Sn1,2.1706,225,7.281734,7.281734,7.281734,60.0,60.0,60.0
10821,Hf6Rb8S28,1.9595,15,11.83606,11.83606,13.90645,68.6377,68.6377,41.49916
10822,Cd2O8W2,3.078,13,6.014205,5.079376,5.154515,88.62969,90.0,90.0
10823,Dy1K1S2,2.336,166,7.7356300000000005,7.7356300000000005,7.7356300000000005,30.38249,30.38249,30.38249
10824,Cd1Pt1Sc2,0.455,216,4.731915,4.731915,4.731915,60.0,60.0,60.0
10825,Au2Pb8Rb6,0.3355,59,7.027821,7.221583,13.5129,90.0,90.0,90.0
10826,Pb2Se6Tl8,0.035500000000000004,140,8.840669,8.840669,8.840669,122.0597,122.0597,86.46808
10827,Cu20K12O16,1.7536,14,7.371469,9.514408,14.05868,73.01133,90.0,90.0
10828,Ag2O6Sb2,1.0898,148,6.481245,6.481245,6.481245,49.36622,49.36622,49.36622
10829,As6Br2Hg4,0.8955000000000001,15,6.300888,6.300888,8.363606,84.31072,84.31072,97.78235
10830,Al2La2O6,3.6969000000000003,167,5.418746,5.418746,5.418746,60.18563,60.18563,60.18563
10831,Al2Nd2O6,3.7444,167,5.344842,5.344842,5.344842,60.43863,60.43863,60.43863
10832,Cs4Cu8F20,1.8907,14,7.949855,7.082466,10.79615,90.64061,90.0,90.0
10833,Cl24Cs8Pt4,2.2135,225,10.56347,10.56347,10.56347,90.0,90.0,90.0
10834,Ca1O3Ti1,2.3663,221,3.920071,3.920071,3.920071,90.0,90.0,90.0
10835,C2Mg2O6,4.9692,167,5.7354400000000005,5.7354400000000005,5.7354400000000005,48.32113,48.32113,48.32113
10836,Cr8K8O28,2.6959,2,7.598846,7.650697,13.65658,95.43332,97.50225,90.9892
10837,Na4Nb4O12,2.1602,62,5.539072,5.588994,7.874794,90.0,90.0,90.0
10838,Ag12Cu4S8,0.7481,88,8.627126,8.627126,8.627126,119.1601,119.1601,91.46095
10839,Ge4O9Pb1,3.4339,5,6.90308,6.90308,4.725411,76.68717,76.68717,114.4802
10840,Cu2Ga2S4,1.1358,122,6.509863,6.509863,6.509863,131.1732,131.1732,71.53809
10841,H4In4O8,1.7006999999999999,198,5.383379,5.383379,5.383379,90.0,90.0,90.0
10842,Mn4N8Si4,1.998,33,5.133824,5.339155,6.619892,90.0,90.0,90.0
10843,As1Ir1La2,0.2074,225,5.193072,5.193072,5.193072,60.0,60.0,60.0
10844,Hf4O12Sr4,4.174,62,5.8324,5.800311,8.21162,90.0,90.0,90.0
10845,O14Sn4Y4,2.2472,227,7.499764,7.499764,7.499764,60.0,60.0,60.0
10846,Ca2Ge4O10,2.4184,15,5.557384,5.557384,6.980027,76.25883,76.25883,106.501
10847,Ge1Mn1O3,0.6972,221,3.74243,3.74243,3.74243,90.0,90.0,90.0
10848,Ca8O24Si8,3.6794000000000002,140,7.182247,7.182247,7.278942,89.99999,90.0,89.99999
10849,Al4O8Zn2,4.4914,227,5.731155,5.731155,5.731155,60.0,60.0,60.0
10850,Er8Se16Yb4,1.1078000000000001,62,4.0393229999999996,13.47443,13.72774,90.0,90.0,90.0
10851,Ga4Se8Sr2,1.8192,66,6.359268,6.359268,11.12501,90.0,90.0,120.277
10852,La4O12Ti3,3.1904,148,9.452927,9.452732,9.453516,34.83777,34.83659,34.8398
10853,Cd1In2Se4,1.0365,82,7.237365,7.237365,7.237365,131.1513,131.1513,71.57281
10854,Bi8Ge6O24,3.469,220,9.246942,9.246942,9.246942,109.4712,109.4712,109.4712
10855,C2Ca2O6,5.0054,167,6.441797,6.441797,6.441797,46.17367,46.17367,46.17367
10856,O8Si2Ti2,2.7573,88,6.117129,6.117129,6.117129,135.4935,135.4935,64.76431
10857,Br10Dy4Li2,0.1363,15,8.83512,8.83512,7.801584,89.295,89.295,45.27924
10858,Li3O4U1,3.0831,139,5.332831,5.332831,5.332831,129.6804,129.6804,73.91824
10859,Al8O20Si4,5.446,2,7.202782,7.933248,5.634549,89.89897,101.1348,106.0117
10860,B2H8Na2,6.4385,114,4.3458,4.3458,5.898524,90.0,90.0,90.0
10861,Cl16I8K8,2.3548999999999998,14,11.34065,8.725243,12.50521,71.89331,90.0,90.0
10862,K4N4O12,2.9126000000000003,62,5.507675,6.561601,9.315336,90.0,90.0,90.0
10863,O18Si6Sr6,4.6146,15,7.210504,7.209859,11.00899,71.42487,71.42133,60.15502
10864,Hg8O12Se4,2.2984999999999998,36,10.31392,10.31392,5.244246,90.0,90.0,112.8178
10865,Ni1Tl1V1,0.2897,216,4.20738,4.20738,4.20738,60.0,60.0,60.0
10866,Ca1Pd1Te1,0.24350000000000002,216,4.720631,4.720631,4.720631,60.0,60.0,60.0
10867,Ag32S24Ti4,0.8694000000000001,33,7.568688,10.89854,15.38813,90.0,90.0,90.0
10868,B16Li8O28,5.6168,110,8.693396,8.693396,8.693387,113.0806,113.083,102.4691
10869,Ca2O6Ti2,2.7913,140,5.450913,5.450913,5.515183,119.6235,119.6235,89.98553
10870,Cr2O8Y2,0.2066,141,5.999506,5.999506,5.999506,105.984,105.984,116.6964
10871,O12Rb8Ti4,3.8701,64,6.827284,6.827284,13.57131,90.0,90.0,126.6127
10872,Li8Mo10O34,3.0228,2,6.93828,9.634943,11.04834,106.9481,89.02796,110.308
10873,F6O2P2,5.7782,164,5.486829,5.486829,6.21769,90.00402,89.99598,120.0019
10874,Fe2Ga2S5,0.6565000000000001,164,3.694339,3.694339,15.26542,89.9696,90.0304,120.0232
10875,Na6O5Pb1,1.1163,107,6.191264,6.191264,6.191264,101.8322,101.8322,126.1504
10876,H4Mn4O8,1.8966,14,7.426726,5.8198550000000004,8.484937,89.65573,90.0,90.0
10877,Bi1O3Sc1,0.655,221,4.113972,4.113972,4.113972,90.0,90.0,90.0
10878,N8Na24O32,3.7952,61,8.695111,9.129668,9.793326,90.0,90.0,90.0
10879,O8Sr2W2,4.4316,88,7.213995,7.213995,7.213995,135.153,135.153,65.29263
10880,Al8K8Si38,0.7651,1,14.93456,14.90436,10.53911,134.8975,135.0979,60.04849
10881,Ga2La2O6,3.407,167,5.534606,5.534606,5.534606,60.79308,60.79308,60.79308
10882,C2Cl4F4,5.5222,43,9.618296,8.322063,5.834053,83.62532,59.30344,37.07124
10883,Na1Nb1O3,1.8371,221,3.986628,3.986628,3.986628,90.0,90.0,90.0
10884,Cl6Cs2Cu4,2.4011,63,7.773117,7.773117,5.524035,90.0,90.0,103.6809
10885,S4Sc2Tl2,1.0104,194,3.847525,3.847525,15.04402,90.0,90.0,120.0012
10886,P4Sn2Zn2,0.6982,122,7.014577,7.014577,7.014577,131.9757,131.9757,70.26741
10887,B2Nb2O8,2.8001,141,5.240529,5.240529,5.240529,106.0836,106.0836,116.4823
10888,Fe4O8Si2,2.8995,227,5.684905,5.684905,5.684905,60.0,60.0,60.0