,full_formula,band_gap,spacegroup.number,structure.lattice.a,structure.lattice.b,structure.lattice.c,structure.lattice.alpha,structure.lattice.beta,structure.lattice.gamma
13498,N8Na8O8,3.3747,14,9.275325,5.143395,6.234881,81.56819,90.0,90.0
13499,Ag1Cl1O4,3.621,121,4.960103,4.960103,4.960103,118.3984,118.3984,92.79725
13500,Hg1Mo2Ti1,0.08460000000000001,216,4.586066,4.586066,4.586066,60.0,60.0,60.0
13501,Cr2P2S8,0.9636,12,6.624712,6.624712,6.633839,88.43748,88.43748,68.69236
13502,Ag4K4O4,1.4935,139,7.650868,7.650868,7.650868,97.47232,97.47232,137.7234
13503,Al4I16In4,3.0029,11,11.97033,7.4158100000000005,12.57004,83.9632,90.0,90.0
13504,Al1La2Rh1,0.0751,216,5.030077,5.030077,5.030077,60.0,60.0,60.0
13505,Rb4S8Sb4,1.9513,1,12.83468,6.698707,6.734294,75.50744,73.54048,70.06682
13506,Cl6Ir2Te12,1.2386,167,9.286992,9.286992,9.286992,108.1266,108.1266,108.1266
13507,As2Cu2K4,1.1223,63,6.318879,6.318879,5.931064,90.0,90.0,105.9319
13508,Cs3O8Ta1,3.0132,121,6.823081,6.823081,6.823081,112.7991,112.7991,103.0027
13509,As1Nb1Ru1,0.616,216,4.218279,4.218279,4.218279,60.0,60.0,60.0
13510,C1O5U1,3.7846,44,5.782443,5.782443,5.782443,135.4265,129.7309,69.41883
13511,Ba1O3Ti1,2.1328,221,4.06006,4.06006,4.06006,90.0,90.0,90.0
13512,Co1Ge1Ta1,1.1666,216,4.012953,4.012953,4.012953,60.0,60.0,60.0
13513,H8Li4N4,3.1584,82,6.29684,6.29684,6.29684,132.558,132.558,69.3492
13514,F8Pb2Sn2,3.584,129,4.425419,4.425419,10.82736,90.0,90.0,90.0
13515,Na1O3Ta1,2.503,221,3.995755,3.995755,3.995755,90.0,90.0,90.0
13516,Mn6Na12O12,0.3034,15,8.80103,8.80103,6.191291,70.15842,70.15842,87.88305
13517,Cl18Cs6W4,1.2913000000000001,194,7.752924,7.752924,17.29624,90.0,90.0,119.9988
13518,F6K2Si1,7.229,225,5.828671,5.828671,5.828671,60.0,60.0,60.0
13519,As1Fe1Ta1,1.1608,216,4.024958,4.024958,4.024958,60.0,60.0,60.0
13520,I4Li4O12,3.6173,33,5.419361,5.92337,9.456317,90.0,90.0,90.0
13521,Co1Sb1Ti1,0.8156,216,4.162805,4.162805,4.162805,60.0,60.0,60.0
13522,K2Nb2Se4,0.7146,194,3.632037,3.632044,16.37139,90.0,90.0,119.9999
13523,Fe4Ge4O12,0.8486,15,6.779904,6.779904,5.289503,81.5489,81.5489,85.4179
13524,Ag28P12S44,1.7000000000000002,15,12.78715,12.78715,25.0347,69.91495,69.91495,29.43148
13525,I12O2Sr8,3.5761000000000003,186,10.62066,10.62066,8.214329,90.0,90.0,119.9997
13526,Al4Cl16Li4,5.5528,14,6.846001,7.063375,13.19016,87.28757,90.0,90.0
13527,Mg4Mo6O16,2.0522,186,5.839989,5.839989,10.04452,90.0,90.0,120.0019
13528,Nb1Pt2Sc1,0.2691,216,4.56156,4.56156,4.56156,60.0,60.0,60.0
13529,Cd2O8W2,3.0905,13,5.999161,5.090594,5.150799,88.51275,90.0,90.0
13530,Gd4O14Zr4,0.1484,227,7.460568,7.460568,7.460568,60.0,60.0,60.0
13531,Ce8S20Th4,1.4761,62,7.716627,8.355058,12.32328,90.0,90.03043,90.0
13532,Ga3O12P3,4.5226,152,4.991199,4.991199,11.21963,90.0,90.0,120.0
13533,Br16Na8Zn4,3.9706,62,6.829392,8.656149,14.64013,90.0,90.0,90.0
13534,Ca4O12Zr4,3.8168,62,5.835618,5.636549,8.104282,90.0,90.0,90.0
13535,Ca4O16S4,3.1292,14,6.792008,7.289089,6.799029,80.16018,89.99014,90.00857
13536,Al4O8Zn2,4.4919,227,5.731089,5.731089,5.731089,60.0,60.0,60.0
13537,Ba1O3Th1,2.9236,221,4.75342,4.75342,4.75342,90.0,90.0,90.0
13538,Co1O3Si1,1.2158,221,3.537041,3.537041,3.537041,90.0,90.0,90.0
13539,Ca1Mg2N2,1.9832,164,3.560999,3.560999,6.125268,90.00045,89.99955,120.0011
13540,Cl6Cs2U1,3.0064,164,7.691286,7.691287,6.340315,89.99929,90.00071,120.0008
13541,Al22Na2O34,4.5067,194,5.650257,5.650273,22.78994,90.0,90.0,120.0001
13542,I2Li2O6,3.6482,173,5.5352,5.535407,5.301821,90.0,90.0,120.0114
13543,Cr4O16V4,2.1302,12,6.728436,6.728436,6.934533,77.38518,77.38518,84.1955
13544,Ge8P32Sr32,1.0416,218,12.57297,12.57297,12.57297,90.0,90.0,90.0
13545,Mg4O20Se8,3.0188,60,6.139557,6.94271,10.54176,90.0,90.0,90.0
13546,O7Sr3Ti2,2.3752,139,10.65914,10.65914,10.65914,158.5474,158.5474,30.52123
13547,Cd1Li2Te1,0.0813,225,5.014367,5.014367,5.014367,60.0,60.0,60.0
13548,Er4O14Sn4,2.173,227,7.451126,7.451126,7.451126,60.0,60.0,60.0
13549,Er1Li1Se2,1.6244,166,6.913613,6.913613,6.913613,33.96596,33.96596,33.96596
13550,Ca8Ge4S16,2.493,62,6.355014,8.223929,13.88838,90.0,90.0,90.0
13551,Bi1O3Sc1,0.6569,221,4.112913,4.112913,4.112913,90.0,90.0,90.0
13552,Ge8Te24Tl16,0.4611,62,8.547855,8.763646,21.97314,90.0,90.0,90.0
13553,Hf4Pb4S12,1.4281000000000001,62,3.775969,9.201992,14.17399,90.0,90.0,90.0
13554,Au1Cl1Li2,0.7793,225,4.723446,4.723446,4.723446,60.0,60.0,60.0
13555,Al1F4Tl1,4.2369,123,3.698572,3.698572,6.506794,90.0,90.0,90.0
13556,As4K4Pd2,0.9343,63,7.90927,7.90927,6.090425,90.0,90.0,130.7216
13557,Al12Ca6O24,4.188,173,8.832222999999999,8.832252,8.205637,90.0,90.0,120.0004
13558,Er8O20Si4,4.7011,15,7.971044,7.971044,10.4169,61.22566,61.22566,50.13607
13559,Er1Na1S2,2.32,166,7.03862,7.03862,7.03862,32.53473,32.53473,32.53473
13560,As2Li2Se4,0.7317,9,6.873206,6.873213,5.622249,69.30564,69.30468,47.93144
13561,Au1F3Mg1,1.3326,221,3.994796,3.994796,3.994796,90.0,90.0,90.0
13562,Cu3S4Ta1,2.1667,215,5.570788,5.570788,5.570788,90.0,90.0,90.0
13563,As4F28Kr4,2.45,14,10.4858,5.448976,11.23184,84.16295,90.0,90.0
13564,Br16Rb8Zn4,3.7577,62,7.53525,9.725641,14.901,90.0,90.00696,90.0
13565,Bi12Se26Sr8,0.4927,11,4.273997,17.25544,18.71237,89.53813,90.0,90.0
13566,B16Li8O28,5.6274,110,8.686852,8.686842,8.686892,113.1195,113.1215,102.3966
13567,Be1F3Sc1,0.8290000000000001,221,4.223738,4.223738,4.223738,90.0,90.0,90.0
13568,Rb1S8V5,0.3745,12,9.278391,9.278391,8.866205,75.5004,75.5004,22.26299
13569,Br8K4Zn2,3.9143,4,7.607253,7.377872,9.198793,71.40791,90.0,90.0
13570,Mn2O8W2,2.2198,13,5.849985,4.8953500000000005,5.072253,88.75915,90.0,90.0
13571,Mn1O6Pt3,0.4484,65,6.231454,6.231454,3.211762,90.0,90.0,109.0735
13572,Fe8Ge8Si8,0.5115000000000001,64,6.453053,6.453053,8.047611,90.0,90.0,104.4595
13573,F24K4Sb4,4.9347,206,9.0246,9.0246,9.0246,109.4712,109.4712,109.4712
13574,Ge38I8P8,1.0643,218,10.67109,10.67109,10.67109,90.0,90.0,90.0
13575,Ru1Sb1V1,0.6518,216,4.277952,4.277952,4.277952,60.0,60.0,60.0
13576,O3Sr1Ti1,2.2898,221,3.9728310000000002,3.9728310000000002,3.9728310000000002,90.0,90.0,90.0
13577,F36In2Sb6,3.5517000000000003,165,9.107154,9.107154,9.772133,90.0,90.0,120.0
13578,Ag2Dy2Te4,0.8728,113,7.223269,7.223269,4.624384,90.0,90.0,90.0
13579,Al4Cd2O8,2.8029,227,5.988536,5.988536,5.988536,60.0,60.0,60.0
13580,O12Sb4Tl4,2.146,182,5.399902,5.399832,16.23159,90.0,90.0,120.0004
13581,Na1S2Sc1,2.0729,166,6.987475,6.987475,6.987475,31.6042,31.6042,31.6042
13582,Bi1O3Sc1,0.6555000000000001,221,4.113693,4.113693,4.113693,90.0,90.0,90.0
13583,Er2F2O2,5.1809,166,6.662454,6.662454,6.662454,32.97393,32.97393,32.97393
13584,B2H8K2,6.1073,137,4.746481,4.746481,6.666983,90.0,90.0,90.0
13585,Cl18Cr4Cs6,2.4423,194,7.423292,7.423292,18.58188,90.0,90.0,120.0009
13586,C4F12I4,3.7091000000000003,64,4.969071,4.969071,20.03059,90.0,90.0,105.8216
13587,F8Fe2Rb2,2.4918,127,5.487701,5.487701,6.582039,90.0,90.0,90.0
13588,N16O12S20,1.7646000000000002,14,13.79453,7.29394,11.33791,84.93839,90.0,90.0
13589,Fe20O48Tb12,1.6824,230,10.88403,10.88403,10.88403,109.4712,109.4712,109.4712
13590,Ca4F12K4,6.6452,62,6.211728,6.318235,8.837298,90.0,90.0,90.0
13591,Cl20K8Sb4,3.2391,14,12.7678,9.10992,9.062504,70.89913,90.0,90.0
13592,Au2Bi2Na4,0.48710000000000003,63,6.12301,6.12301,5.969936,90.0,90.0,101.9626
13593,Ca1S2Sn1,0.6277,225,5.025967,5.025967,5.025967,60.0,60.0,60.0
13594,In1K2N1,0.09670000000000001,225,5.337618,5.337618,5.337618,60.0,60.0,60.0
13595,O8W2Zn2,3.0626,13,5.752411,4.676135,4.955505,89.28914,90.0,90.0
13596,Bi4O12Rb12,3.1139,198,8.969905,8.969905,8.969905,90.0,90.0,90.0
13597,Bi2O8P2,3.9162,11,7.194104,4.811169,4.932247,82.87762,90.0,90.0
13598,Al1F4Tl1,4.2435,123,3.698772,3.698772,6.494555,90.0,90.0,90.0
13599,Ba9O24P6,5.1463,166,5.691651,5.691651,21.3353,90.0,90.0,120.0
13600,Ca4O12Zr4,3.8203,62,5.830414,5.638229,8.101042,90.0,90.0,90.0
13601,Ba2C2O6,3.9725,194,5.509468,5.509539,5.69752,90.0,90.0,119.9996
13602,I56Mo24Pb4,1.9883000000000002,201,14.86144,14.86144,14.86144,90.0,90.0,90.0
13603,Cs2Ga2H8,4.6509,137,5.625836,5.625836,7.863277,90.0,90.0,90.0
13604,C32Co8O32,2.8337,11,6.7751149999999996,11.57682,16.04086,90.0,90.0,90.6705
13605,Cu4S8Sb4,1.0143,62,3.834891,6.114348,14.48167,90.0,90.0,90.0
13606,Ba1Li1P1,0.7021000000000001,187,4.441246,4.441246,4.529592,90.0,90.0,120.0024
13607,Mn4O14Y4,0.8575,227,7.108347,7.108347,7.108347,60.0,60.0,60.0
13608,Cr4Hg2S8,0.4267,227,7.382307,7.382307,7.382307,60.0,60.0,60.0
13609,Ba8Sb8Te24,0.38830000000000003,19,4.631149,17.32707,18.37405,90.0,90.0,89.99999
13610,I4K12O20,1.2564,130,6.311632,6.311632,16.91339,90.0,90.0,90.0
13611,Ga2La2O6,3.4043,167,5.534636,5.534636,5.534636,60.80137,60.80137,60.80137
13612,Ge4Na8S12,2.4678,14,15.47802,5.860972,7.030671,64.26345,90.0,90.0
13613,Ba4Ce4O12,2.8754,62,6.33071,6.318125,8.913097,90.0,90.0,90.0
13614,Ga20O48Tb12,3.3862,230,10.74674,10.74674,10.74674,109.4712,109.4712,109.4712
13615,F4K2Mn1,2.8452,139,7.3457609999999995,7.3457609999999995,7.3457609999999995,146.4076,146.4076,48.24176
13616,Ca2O18V8,2.1745,85,8.417537,8.417537,5.166071,90.0,90.0,90.0
13617,F8Pb2Sn2,3.5891,129,4.421623,4.421623,10.86541,90.0,90.0,90.0
13618,Dy8O28Si8,4.6269,2,6.6531400000000005,6.6941749999999995,12.14991,94.5206,88.88333,88.16392
13619,Cl2F12Pb7,4.206,174,10.42707,10.427,4.028911,90.0,90.0,120.0034
13620,In4S8Zn2,1.395,227,7.548011,7.548011,7.548011,60.0,60.0,60.0
13621,Pd2S8U4,0.7149,43,8.610095,7.934017,6.881023,70.65826,60.39712,48.94462
13622,H8N10Zn1,4.113,2,4.095325,6.546233,7.193751,68.90942,88.85787,88.9973
13623,O3Pb1Ti1,2.2004,99,3.962093,3.962093,4.237556,90.0,90.0,90.0
13624,Ge2P4Zn2,1.2382,122,6.64743,6.64743,6.64743,131.212,131.212,71.47643
13625,Cl8I3Sb1,1.1817,2,7.573272,7.777011,8.103179,94.00511,86.12551,79.1099
13626,Bi2K2O4,1.8553000000000002,15,5.702007,5.702007,6.665719,62.69757,62.69757,92.33949
13627,Cr4O8Zn2,2.6332,227,5.952229,5.952229,5.952229,60.0,60.0,60.0
13628,Ag6O8V2,1.3736000000000002,15,5.969407,5.969407,10.43647,66.33831,66.33831,49.58183
13629,I8P16S12,1.9088,62,7.158479,10.36505,16.93198,90.0,90.0,90.0
13630,Cl26Li2Mo12,2.7598000000000003,2,9.282451,9.24039,14.22315,97.13031,106.7007,106.9957
13631,Be1Hf1O3,1.0541,221,3.437726,3.437726,3.437726,90.0,90.0,90.0
13632,K8Se16Sn6,1.3421,68,14.83492,14.83492,8.415958,90.0,90.0,146.8972
13633,Cl12Cu4K8,2.6950000000000003,62,4.185518,12.20981,12.69377,90.0,90.0,90.0
13634,F4Hg1Rb2,1.9437000000000002,139,7.737734,7.737734,7.737734,144.7658,144.7658,50.68361
13635,Ge1Pd1Zr1,0.4587,216,4.358838,4.358838,4.358838,60.0,60.0,60.0
13636,O7Sc2Si2,4.6563,12,5.447344,5.447344,4.742148,82.42101,82.42101,105.3032
13637,Cl24N12P12,4.1139,62,6.615106,13.79605,14.827960000000001,90.0,90.0,90.0
13638,I2K2O8,2.3207,88,7.692904,7.692904,7.692904,135.1362,135.1362,65.31861