,full_formula,band_gap,spacegroup.number,structure.lattice.a,structure.lattice.b,structure.lattice.c,structure.lattice.alpha,structure.lattice.beta,structure.lattice.gamma
8791,F6Na2Th1,6.4563,150,6.144695,6.145929,3.983572,90.00114,89.99979,119.9944
8792,As4Eu6S16,1.4911,167,9.385521,9.385352,10.77102,64.17453,64.16896,60.00046
8793,H20Mg6Rb8,3.4376,64,7.662575,7.662575,13.4731,90.0,90.0,133.8221
8794,Cu4O12Se4,1.1621,62,5.474127,6.154148,7.315876,90.0,90.0,90.0
8795,Ga1Pd1V1,0.2746,216,4.166874,4.166874,4.166874,60.0,60.0,60.0
8796,Cu4I4Te8,1.0263,14,5.198238,8.652817,12.49476,75.6109,90.0,90.0
8797,Si1Ti2W1,0.043500000000000004,216,4.404785,4.404785,4.404785,60.0,60.0,60.0
8798,N9O27Rb9,3.1918,145,11.8178,11.8178,7.227399,90.0,90.0,120.0
8799,O32P8Zn12,3.9963,14,8.823749,8.354556,8.988775,70.72045,90.0,90.0
8800,Cd2K12Te8,1.6775,186,11.15301,11.15301,8.481458,90.0,90.0,120.0
8801,S12Sr8Zn4,2.465,62,4.081131,8.501346,16.44875,90.0,90.0,90.0
8802,Dy1Se2Tl1,1.2599,166,8.147222,8.147222,8.147222,29.73299,29.73299,29.73299
8803,Cs4I16Tl4,1.2496,14,19.33978,7.615761,8.824798,74.52965,90.0,90.0
8804,K12Sn4Te12,1.08,14,13.97372,9.761967,9.757839,63.15635,90.0,90.0
8805,Eu8I20Rb4,3.2064,14,9.150131,10.20781,14.50713,89.73888,90.0,90.0
8806,As4O18V6,2.3888,100,9.067484,9.067484,4.755343,90.0,90.0,90.0
8807,F12K4Mn2,3.1714,186,5.8303709999999995,5.8303709999999995,9.506505,90.0,90.0,120.0014
8808,Hf8O24Pb8,2.7236000000000002,55,5.89681,8.242885,11.78128,90.0,90.0,90.0
8809,Ce2Cl2O2,3.9624,129,4.152321,4.152321,6.897451,90.0,90.0,90.0
8810,Cu2In2S4,0.402,122,6.858084,6.858084,6.858084,132.048,132.048,70.1533
8811,As4Ge2Zn2,0.1369,122,6.971082,6.971082,6.971082,131.3452,131.3452,71.26518
8812,Ca1O3Ti1,2.3642,221,3.921377,3.921377,3.921377,90.0,90.0,90.0
8813,Cl6N2Y4,2.062,12,8.511408,8.511408,10.81673,58.83729,58.83729,26.13145
8814,Cd4P56Pb4,1.1937,62,9.775941,11.68711,15.95037,90.0,90.0,90.0
8815,F6K2Si1,7.2289,225,5.830957,5.830957,5.830957,60.0,60.0,60.0
8816,Mn2O7V2,1.4546000000000001,12,5.573348,5.573348,5.068797,82.43374,82.43374,106.5009
8817,Mn3O18Sb6,0.5538000000000001,150,8.946534,8.946594,4.805193,90.00029,90.0,120.0006
8818,Ge1La2Ru1,0.028,216,4.989329,4.989329,4.989329,60.0,60.0,60.0
8819,Ga2S4Zn1,2.069,111,5.407013,5.219748,5.219748,90.0,90.0,90.0
8820,I20In12Sn4,1.9913,14,9.028687,9.045379,17.74192,80.62509,90.0,90.0
8821,O7Sr3Ti2,2.3745,139,10.67191,10.67191,10.67191,158.5737,158.5737,30.48334
8822,C2Ca2O6,5.0039,167,6.446082,6.446082,6.446082,46.11177,46.11177,46.11177
8823,Cl6N2Pr4,3.1031,72,8.272194,8.272194,8.272194,136.1347,130.6358,68.14748
8824,Co4O14Sb4,0.9008,227,7.188796,7.188796,7.188796,60.0,60.0,60.0
8825,F8H12O2,7.3658,2,5.576633,6.736593,7.470258,59.6313,63.13277,69.21052
8826,O8Si2Zr2,4.4606,141,5.621955,5.621955,5.621955,106.7584,106.7584,115.0449
8827,Hg8N4O16,1.542,14,6.8038170000000004,5.673325,12.13212,83.14279,90.0,90.0
8828,Br14Ir2Te14,1.2559,2,12.4825,10.23972,10.67756,68.088,68.28588,63.84541
8829,Ag4I12K8,2.8833,62,4.862249,10.20332,19.8178,90.0,90.0,90.0
8830,B4H16Na4,6.5525,62,4.371599,6.117642,8.239662,90.0,90.0,90.0
8831,Mn4O10Sr4,0.11960000000000001,55,3.862383,5.6234269999999995,11.01326,90.0,90.0,90.0
8832,Al8Cl32Yb4,3.8359,142,12.96048,12.96048,12.96048,126.6778,126.6778,78.77691
8833,Cd2Eu1P2,0.491,164,4.364422,4.364422,7.212392,90.00153,89.99847,120.0026
8834,Nb1Ru1Sb1,0.5958,216,4.376198,4.376198,4.376198,60.0,60.0,60.0
8835,Al8Cl32Te16,1.3444,61,11.98872,12.25669,14.2664,90.0,90.0,90.0
8836,Cs8F20Mg6,6.271,64,8.018739,8.018739,13.9061,90.0,90.0,134.3271
8837,Cu1In1O2,0.4418,166,6.146332,6.146332,6.146332,31.44457,31.44457,31.44457
8838,Ca2O6Si2,3.6611000000000002,140,5.114635,5.114635,5.114635,120.4357,120.4357,89.247
8839,Ca1O3Si1,3.4657,221,3.606903,3.606903,3.606903,90.0,90.0,90.0
8840,Be1O4S1,6.9395,82,4.754476,4.754476,4.754476,122.5912,122.5912,85.56766
8841,Be12O24Si6,5.8193,148,7.768634,7.770602,7.770033,108.0328,108.007,108.015
8842,Rh1V1Zn2,0.0931,216,4.274669,4.274669,4.274669,60.0,60.0,60.0
8843,O8P2Sr3,5.3968,166,7.394829,7.39428,7.394829,43.30727,43.3095,43.30727
8844,La8O36Se12,3.5341,62,7.222031,8.637544,14.48113,90.0,90.0,90.0
8845,Cu4O14P4,1.1295,15,5.407269,5.407269,9.317021,76.81249,76.81249,98.57063
8846,B3Bi1O6,3.9302,5,4.424519,4.424519,6.672734,78.34978,78.34978,74.87564
8847,Na1O2V1,1.2536,12,3.067132,3.067132,5.710136,74.20176,74.20176,59.55069
8848,Ba4O16S4,5.9679,62,5.572917,7.262988,8.989621,90.0,90.0,90.0
8849,Mg2O6Si2,5.7859,148,5.343953,5.343953,5.343953,53.20426,53.20426,53.20426
8850,Ba1O3Ti1,2.132,221,4.060489,4.060489,4.060489,90.0,90.0,90.0
8851,Au6P14Sn2,0.209,11,11.19651,6.421488,6.562988,71.22448,90.0,90.0
8852,C4Cu2Rb2,2.3331,131,4.950012,4.950012,8.2902,90.0,90.0,90.0
8853,Ag4S6Te2,1.5495999999999999,9,6.82731,6.82731,7.868669,77.6976,77.6976,118.7849
8854,Cd1F3In1,3.1681,221,4.476932,4.476932,4.476932,90.0,90.0,90.0
8855,Be4F16K8,6.8658,62,5.777938,7.417708,10.03655,90.0,90.0,90.0
8856,K4Se6Sn2,1.441,2,8.864224,7.861445,7.000624,67.35861,74.66462,76.22436
8857,Ni6Sb8U6,0.3447,220,8.218813,8.218813,8.218813,109.4712,109.4712,109.4712
8858,Bi1Co1Ti1,0.6412,216,4.262853,4.262853,4.262853,60.0,60.0,60.0
8859,F6Mg1Pd1,2.289,148,5.437047,5.437047,5.437047,55.81771,55.81771,55.81771
8860,Cl18Te2W2,0.4717,2,11.97239,9.832717,6.701402,88.75392,107.1341,107.2572
8861,Ba1O3Ti1,2.1377,99,4.0592,4.057387,4.057387,90.0,90.0,90.0
8862,Cl12Nb4O4,2.6489000000000003,136,11.75006,11.75006,3.847417,90.0,90.0,90.0
8863,Br2Cs2F2,2.5258000000000003,139,10.46066,10.46066,10.46066,155.6223,155.6223,34.7458
8864,Bi1Cs1F6,2.9058,148,5.568236,5.568236,5.568236,95.66484,95.66484,95.66484
8865,Au2K2Se2,1.9022000000000001,63,5.241897,5.241897,7.027069,90.0,90.0,102.2705
8866,Cl4K2Pt1,2.4939999999999998,123,7.112497,7.112497,4.276707,90.0,90.0,90.0
8867,Dy4Hf4O14,3.2266,227,7.425802,7.425802,7.425802,60.0,60.0,60.0
8868,Na1Nb1O3,1.8371,221,3.986562,3.986562,3.986562,90.0,90.0,90.0
8869,As8O24Zn12,3.9908,14,5.210432,8.313377,15.87386,81.3976,90.0,90.0
8870,Ba1O3Ti1,2.1335,221,4.059697,4.059697,4.059697,90.0,90.0,90.0
8871,Ag4Cl4O12,3.3003,87,7.364026,7.364026,7.364026,108.1138,108.1138,112.2216
8872,B8H32U2,2.8503,63,5.676695,5.676695,12.29139,90.0,90.0,90.45089
8873,Ga4Li4O8,3.3146,33,5.078127,5.448403,6.437062,90.0,90.0,90.0
8874,Au1Cd1F3,0.4446,221,4.398015,4.398015,4.398015,90.0,90.0,90.0
8875,I8Nb8Te34,0.9892000000000001,15,9.347465,9.347465,27.10804,77.35111,77.35111,55.39493
8876,Cr1Cu1S2,0.3083,160,6.545276,6.545276,6.545276,31.60006,31.60006,31.60006
8877,I4K4O12,3.0002,1,9.077313,7.861457,7.8808869999999995,70.89012,54.73216,54.91445
8878,Fe4S16Sb8,0.8958,62,3.801219,11.51824,14.65771,90.0,90.0,90.0
8879,Ag2O11V4,1.4527,12,8.040315,8.040315,9.775959,52.99891,52.99891,25.95646
8880,Li4O4Rb4,2.2446,62,3.559395,6.6045169999999995,9.133608,90.0,90.0,90.0
8881,Br4Hg8N4,0.7001000000000001,194,6.784137,6.783748,11.50286,90.0,90.0,120.0019
8882,As2Ho2O8,3.6026,141,5.951779,5.951779,5.951779,106.511,106.511,115.5693
8883,O8P2V2,1.4252,63,4.749063,4.749063,6.490086,90.0,90.0,112.4424
8884,Ag3As3Ca3,0.0223,189,7.294744,7.294717,4.300682,90.0,90.0,120.0001
8885,C2Mg2O6,4.96,167,5.7386859999999995,5.7386859999999995,5.7386859999999995,48.28375,48.28375,48.28375
8886,Cs16O16Zn8,1.9427,14,6.711843,9.874258,14.9771,79.71287,90.0,90.0
8887,Cs4Hg12S14,0.6109,102,14.3564,14.3564,4.260476,90.0,90.0,90.0
8888,Ga1Li1Si1,0.1922,216,4.164183,4.164183,4.164183,60.0,60.0,60.0
8889,In2Li2O4,2.0245,141,5.638717,5.638717,5.638717,134.5577,134.5577,66.21826
8890,Ge12O32Zn8,2.6637,212,8.259583,8.259583,8.259583,90.0,90.0,90.0
8891,Mn6O20Sr8,1.2082,64,6.859101,6.859101,12.90992,90.0,90.0,132.2702
8892,Eu2O6Ti2,0.6845,140,5.608529,5.608529,5.578423,119.8227,119.8227,90.61325
8893,Cl32I4Sb4,1.5962,76,7.533879,7.533879,24.98294,90.0,90.0,90.0
8894,Be1Cu1F3,1.3386,221,3.558188,3.558188,3.558188,90.0,90.0,90.0
8895,La6O16Re2,1.9592,11,6.380578,7.682951,7.6786829999999995,69.82927,90.0,90.0
8896,Cs4F28Xe4,3.2451,198,8.791568999999999,8.791568999999999,8.791568999999999,90.0,90.0,90.0
8897,Ba8Cl28Sc4,4.1116,4,13.58017,7.134331,12.72959,80.92408,90.0,90.0
8898,Cu1F4K2,0.8504,139,7.038793,7.038793,7.038793,145.2169,145.2169,50.01139
8899,Lu2O8V2,2.9247,141,5.892253,5.892253,5.892253,106.4813,106.4813,115.6323
8900,Al10B2O18,4.9383,36,8.106436,8.106436,7.767774,90.0,90.0,138.6348
8901,Pt2Sc1V1,0.1032,216,4.482651,4.482651,4.482651,60.0,60.0,60.0
8902,Bi2O8P2,3.9263,11,7.203496,4.812348,4.932707,82.66952,90.0,90.0
8903,Mo2O8Sr2,3.6897,88,7.230892,7.230892,7.230892,135.3925,135.3925,64.92096
8904,La6O14Sb2,2.6773,63,6.853938,6.853938,7.886233,90.0,90.0,110.9291
8905,Ba2F1N1,1.0927,166,7.174996,7.174996,7.174996,32.7339,32.7339,32.7339
8906,Cr2O8W2,0.7522000000000001,12,5.572429,5.572429,4.72292,88.22823,88.22823,64.30084
8907,F28Sc4Sr8,6.7586,14,12.37362,5.569373,8.355055,89.54154,90.0,90.0
8908,O8P2Sb2,4.01,11,6.882931,4.892078,5.239619,83.94268,90.0,90.0
8909,Ag6P2Se8,0.55,31,6.980708,7.2952069999999996,8.237566,90.0,90.0,89.99979
8910,Er1S2Tl1,1.4174,166,7.8834859999999995,7.8834859999999995,7.8834859999999995,29.40049,29.40049,29.40049
8911,In12O32P8,3.1027,220,9.78036,9.78036,9.78036,109.4712,109.4712,109.4712
8912,Cd6Cl18Cs6,2.6273,194,7.538683,7.538476,18.7726,90.0,90.0,120.0009
8913,Cu3O8V2,0.9546,2,5.240401,6.945396,5.427919,63.18909,68.04973,73.7669
8914,Cs8F24Mn4,3.2328,225,9.152307,9.152307,9.152307,90.0,90.0,90.0
8915,Ca2Mo2O8,3.3476,88,6.90739,6.90739,6.90739,134.8586,134.8586,65.75005
8916,Lu4Mg2S8,2.0054,227,7.799051,7.799051,7.799051,60.0,60.0,60.0
8917,F13K1Sb4,4.7521,87,7.848183,7.848183,7.848183,98.21284,98.21284,135.5857
8918,Ni1Tl1V1,0.2897,216,4.20738,4.20738,4.20738,60.0,60.0,60.0
8919,Br12Cd4Rb4,2.7939,62,4.296455,9.643837,16.00224,90.0,90.0,90.0
8920,Ge2P4Zn2,1.2419,122,6.65344,6.65344,6.65344,131.2728,131.2728,71.37998
8921,F18Na6Si3,6.9888,150,9.021981,9.021981,5.114908,90.00038,89.99962,120.0009
8922,Ca10O25P6,3.1773,174,9.597726,9.597733,6.897912,90.0,90.0,120.0013
8923,Ag2Ga2S4,1.5044,122,6.66833,6.66833,6.66833,127.9765,127.9765,76.66316
8924,Ga1Ni1Ta1,0.3719,216,4.096632,4.096632,4.096632,60.0,60.0,60.0
8925,Al4Ba2O8,3.9452,182,5.265723,5.265723,8.978860000000001,90.0,90.0,120.0053
8926,B16Mn8O32,4.4589,14,7.5434660000000004,7.199751,8.870225,85.90288,90.0,90.0
8927,N4O4Ta4,2.4145,12,6.889411,6.889411,6.780471,73.15874,73.15874,33.04497
8928,Cr4O8Zn2,2.6336,227,5.9513490000000004,5.9513490000000004,5.950997,60.00196,60.00196,59.99609
8929,O3Pb1V1,1.09,99,3.837011,3.837011,4.857013,90.0,90.0,90.0
8930,Cu1O6V2,1.1492,12,5.008522,5.008522,6.592326,72.24335,72.24335,41.74558
8931,Mo8O32U4,0.5634,50,4.199219,7.457426,20.42579,90.0,90.0,90.0
8932,Co2O8Se2,2.246,63,4.963376,4.963376,6.691434,90.0,90.0,112.3379
8933,F6Sn1Zn1,3.855,148,5.5712,5.5712,5.5712,56.4982,56.4982,56.4982
8934,F3Ni1Se1,0.1015,221,4.102391,4.102391,4.102391,90.0,90.0,90.0
8935,F4H2K2,6.9146,140,5.327898,5.327898,5.327898,114.8094,114.8094,99.25315
8936,Pt3Rb2S4,1.7501,69,8.614811,7.398788,6.358723,77.12871,56.85241,46.01887
8937,O16P4Pb6,3.5098000000000003,15,7.603086,7.603086,9.572497,79.47179,79.47179,45.9117
8938,Hf1Ru1Te1,0.1454,216,4.435433,4.435433,4.435433,60.0,60.0,60.0
8939,Bi8Li8Yb8,0.24680000000000002,186,9.691776,9.692894,7.821884,90.0,90.0,119.9962
8940,N2Na2O6,2.9564,167,6.41404,6.41404,6.41404,47.34475,47.34475,47.34475
8941,Bi2Fe2O6,1.6692,161,5.731659,5.731659,5.731659,58.937780000000004,58.937780000000004,58.937780000000004
8942,Ca6Cr2N6,0.4398,63,6.689575,6.689575,5.045,90.0,90.0,100.6892
8943,As8Ce8Se8,0.1744,62,5.831277,5.841282,18.11004,90.0,90.0,90.0
8944,Cl16Pd16S16,1.4328,14,10.0089,9.039311,15.86495,98.01166,90.0,90.0
8945,Ce7O16Zr1,2.3321,123,7.713617,7.713617,5.451774,90.0,90.0,90.0
8946,C8K4N12,4.672,57,6.598403,7.390054,8.473844,90.0,90.0,90.0
8947,B16Li8O28,5.6187000000000005,110,8.692772,8.692772,8.692772,113.1271,113.1271,102.3836
8948,La2Ni1O4,0.1678,139,6.94339,6.94339,6.94339,147.1769,147.1769,47.10196
8949,N8O24Sr4,3.7171000000000003,205,7.912811,7.912811,7.912811,90.0,90.0,90.0
8950,Ge4La4O14,3.569,1,7.187457,7.025042,7.220466,87.61241,64.16695,88.63038
8951,Cr2Hg10O12,0.855,15,8.284913,8.284913,6.877387,84.56755,84.56755,91.5886
8952,Nb6O16Sr1,1.9211,38,9.13784,9.13784,3.900518,90.0,90.0,110.2705
8953,Cr4S8Zn2,1.1687,227,7.135234,7.135234,7.135234,60.0,60.0,60.0
8954,Cd1Ga2Se4,1.4232,82,6.873781,6.873781,6.873781,129.3425,129.3425,74.46004
8955,C2Cl4F4,4.7287,43,9.556365,8.036572,5.698403,86.41058,57.06793,36.52149
8956,Ce2O8V2,2.4014,141,6.256714,6.256714,6.256714,105.9999,105.9999,116.6621
8957,O8W2Zn2,3.0615,13,5.752073,4.675582,4.955258,89.30713,90.0,90.0
8958,H12Na8Ru2,2.6814999999999998,167,6.43729,6.43729,6.43729,89.38504,89.38504,89.38504
8959,Al4Cl16Cu2,1.2671999999999999,14,7.644199,6.977222,12.57412,84.48021,90.0,90.0
8960,I2Li2O6,3.6319,173,5.537458,5.537348,5.296262,90.0,90.0,119.9993
8961,C2O8Rb8,1.2588,4,6.325396,7.041235,8.376463,93.71498,90.0,90.0
8962,Hf2In1Re1,0.0755,216,4.7626919999999995,4.7626919999999995,4.7626919999999995,60.0,60.0,60.0
8963,Al1Mn1Ti2,0.2305,216,4.398968,4.398968,4.398968,60.0,60.0,60.0
8964,Cl3Mn1Tl1,2.6104000000000003,221,5.095861,5.095861,5.095861,90.0,90.0,90.0
8965,Hf2O8Si2,5.3075,141,5.563357,5.563357,5.563357,106.9307,106.9307,114.6814
8966,O3Rb1Ta1,2.2193,221,4.083969,4.083969,4.083969,90.0,90.0,90.0
8967,Ba4In4O10,1.0617,46,9.485671,9.485671,9.485671,142.9061,141.7951,54.3063
8968,B1O3Ta1,1.9509,221,3.983259,3.983259,3.983259,90.0,90.0,90.0
8969,Ag4Cl4O8,1.3516,54,6.2498000000000005,6.294293,7.026681,90.0,90.0,90.0
8970,Cu2O6Ta2,1.4042,161,5.624762,5.624762,5.624762,55.91147,55.91147,55.91147
8971,H12Mg4Na4,3.3685,62,5.358137,5.44329,7.646407,90.0,90.0,90.0
8972,Ag4C2O6,0.9168000000000001,11,9.744371,3.340693,4.910349,87.59157,90.0,90.0
8973,Hg8S12Si2,0.4349,9,7.297641,7.297683,12.66341,72.51027,72.50992,59.83191
8974,Ag4Er4Se8,1.566,19,4.191914,6.923219,13.76754,90.0,90.0,90.0
8975,In2Na10O8,1.8407,59,5.514808,7.429534,7.67041,90.0,90.0,90.0
8976,Cl8Pd4Se32,1.3859,61,9.271923,10.25687,14.3157,90.0,90.0,90.0
8977,H16Mg8Ni4,1.6663000000000001,15,7.810431,7.810431,6.432269,68.87907,68.87907,47.96752
8978,Ni2Sc1Ta1,0.19840000000000002,216,4.332279,4.332279,4.332279,60.0,60.0,60.0
8979,Li7O6Ta1,4.5523,146,5.609232,5.609405,5.894666,61.59045,61.59065,59.99894
8980,Ba2S6V2,0.2602,36,6.747117,6.747117,5.772397,90.0,90.0,118.4812
8981,La4O14Zr4,3.8174,227,7.744534,7.744534,7.744534,60.0,60.0,60.0
8982,Ca4O28V12,2.1245,62,5.368474,10.4796,10.68959,90.0,90.0,90.0
8983,Na1Pr1Se2,1.5632000000000001,166,7.531594,7.531594,7.531594,33.17417,33.17417,33.17417
8984,Br3Cs1Li2,4.2957,71,7.703914,7.703914,7.703914,144.8324,136.2899,57.29483
8985,O14Tb4Ti4,3.296,227,7.248834,7.248834,7.248834,60.0,60.0,60.0
8986,Li8Mg4Si4,0.163,215,6.357765,6.357765,6.357765,90.0,90.0,90.0
8987,Ba12S28Sn8,1.9561000000000002,14,6.969668,11.28322,19.03142,80.17722,90.0,90.0
8988,Ge4Pt4Se4,0.5377000000000001,29,6.09093,6.147665,6.064771,90.0,90.0,90.0
8989,B4Ca2H16,4.9599,43,7.903756,7.574382,5.772066,71.17242,65.1009,43.72668
8990,Co1O3Sc1,1.1483,221,3.672055,3.672055,3.672055,90.0,90.0,90.0
8991,Cu2F6K2,1.2722,140,5.784228,5.784228,5.784228,118.6186,118.6186,92.40982
8992,Au10F42Tb4,2.2159,2,12.12301,9.195476,8.099857,90.78736,90.74367,89.12295
8993,Ir8P8Te8,0.902,61,6.084111,6.099821,12.33998,90.0,90.0,90.0
8994,Co1O6V2,2.2135,5,5.033895,5.033895,6.805151,70.05717,70.05717,40.87313
8995,F8Li2Y2,7.8262,88,6.579403,6.579403,6.579403,132.9842,132.9842,68.67899
8996,O3Tc1Zr1,0.6245,221,4.160722,4.160722,4.160722,90.0,90.0,90.0
8997,F3Fe1Rb1,3.0748,221,4.105829,4.105829,4.105829,90.0,90.0,90.0
8998,As4La4S4,0.1821,62,17.96158,4.087188,3.999432,90.02518,90.0,90.0
8999,B2O6Tl6,1.3645,176,9.437732,9.436916,3.8948739999999997,90.0,90.0,120.0026
9000,Al8Sb24Sr20,0.7645000000000001,62,10.46686,12.26312,13.50568,89.99843,90.0,90.0
9001,Fe1W1Zn2,0.26890000000000003,216,4.232582,4.232582,4.232582,60.0,60.0,60.0
9002,Ba1Hg1O2,2.2647,166,6.999153,6.999153,6.999153,34.91776,34.91776,34.91776
9003,Ba1O3Ti1,2.1368,221,4.059903,4.059903,4.059683,90.0,90.0,90.0
9004,C1Na4O4,2.192,5,5.271929,5.271929,5.485248,67.01285,67.01285,60.51318
9005,Se8Tl1V5,0.0478,12,9.815391,9.815391,8.963459,74.76445,74.76445,21.95508
9006,Al4Cd2Se8,1.32,227,7.747994,7.747994,7.747994,60.0,60.0,60.0
9007,As1Fe2Sc1,0.13470000000000001,225,4.166347,4.166347,4.166347,60.0,60.0,60.0
9008,Br3Cs1Ge1,1.216,160,5.696027,5.696027,5.696027,89.13493,89.13493,89.13493
9009,Ge1Hf1Ni1,0.3355,216,4.112593,4.112593,4.112593,60.0,60.0,60.0
9010,F32Li16Zr4,5.9495000000000005,62,5.774708,9.740696,9.740054,90.0,90.0,90.0
9011,Mg2O10V4,1.9675,63,5.416262,5.416262,11.17989,90.0,90.0,139.7298
9012,Na4Nb4O12,2.1742,62,5.530236,5.586814,7.874344,90.0,90.0,90.0
9013,Hf4Ho8S20,1.237,62,7.2405,7.704317,11.52848,90.0,90.0,90.0
9014,B6H24Y2,4.4899000000000004,226,7.802119,7.802119,7.802119,60.0,60.0,60.0
9015,Cu6Sb8U6,0.020800000000000003,220,8.518647,8.518647,8.518647,109.4712,109.4712,109.4712
9016,F2I2Sr2,4.3052,129,4.266332,4.266332,9.650849000000001,90.0,90.0,90.0
9017,Co1Sb1Ti1,0.8156,216,4.162851,4.162851,4.162851,60.0,60.0,60.0
9018,F20O4Os4,1.4731,62,5.246413,8.924105,9.686209,90.0,90.0,90.0
9019,In2S4Tl2,0.4797,194,3.895912,3.8958459999999997,15.04911,90.0,90.0,120.0006
9020,Au2Cs6Pb8,0.5468000000000001,59,7.05404,7.465071,14.10594,90.0,90.0,90.0
9021,F3K1Ni1,3.6539,221,4.072594,4.072594,4.072594,90.0,90.0,90.0
9022,Bi4O10Si2,2.7266,36,8.177275,8.177275,5.386846,90.0,90.0,140.2483
9023,O14Ti4Yb4,0.0816,227,7.169315,7.169315,7.169315,60.0,60.0,60.0
9024,O28P8Si4,5.4705,205,7.732334,7.732334,7.732334,90.0,90.0,90.0
9025,Cd1Ta2W1,0.1295,216,4.673985,4.673985,4.673985,60.0,60.0,60.0
9026,P4Si2Zn2,1.3681,122,6.488585,6.488585,6.488585,130.7287,130.7287,72.24442
9027,Pb4S16Sc8,1.9466,62,3.82031,11.82417,13.89262,90.0,90.0,90.0
9028,Ba2O8W2,4.689,88,7.635925,7.635925,7.635925,136.0461,136.0461,63.90907
9029,Al2La2O6,3.1998,167,5.415292,5.416698,5.416698,60.0,59.99141,59.99141
9030,Ag1F3Sr1,0.678,221,4.508153,4.508153,4.508153,90.0,90.0,90.0
9031,Br28Hg24Sb20,0.9636,205,13.33624,13.33624,13.33624,90.0,90.0,90.0
9032,Dy2O8P2,5.8931000000000004,141,5.780295,5.780295,5.780295,105.971,105.971,116.7243
9033,As16Cd32I24,1.2042,205,13.23862,13.23862,13.23862,90.0,90.0,90.0
9034,Bi4K8O10,2.6385,2,9.789567,9.950044,5.823557,74.80039,72.01762,64.01404
9035,O18Si6Sr6,4.6153,15,7.217006,7.216959,10.99407,71.38212,71.38203,60.10296
9036,Ca4O16Se6,3.4324,2,5.603372,8.421184,8.882916,92.82101,95.79982,97.44914
9037,Ca8O16Si4,4.2538,14,6.071266,5.606129,12.14878,84.67781,90.0,90.0
9038,B16Li8O28,5.5967,110,8.701746,8.701746,8.701553,113.2968,113.2959,102.0663
9039,I12Rb4Sn4,2.0111,62,4.809811,10.590160000000001,17.68746,90.0,90.0,90.0
9040,Cl4H12O20,5.2992,14,9.228687,6.52474,7.903727,79.4997,90.0,90.0
9041,O8P2Pb3,3.2964,12,5.546188,5.546188,7.5771809999999995,68.61984,68.61984,61.02448
9042,P2S6Zn2,2.2286,12,5.957539,5.957539,7.111171,82.00118,82.00118,119.9677
9043,K4S10Sn4,1.1894,15,6.98114,6.98114,11.76135,75.4126,75.4126,70.22229
9044,P8Pd8Se8,1.0707,60,5.880699,5.922451,14.30543,90.0,90.0,90.0
9045,La4O14Zr4,3.8182,227,7.743025,7.743025,7.743025,60.0,60.0,60.0
9046,O16Sn4Sr8,2.2398,56,5.9710339999999995,5.975461,12.46678,90.0,90.0,90.0
9047,Cu4Li12O12,1.3089,136,8.791541,8.791541,3.620183,90.0,90.0,90.0
9048,N20Nb4Sr20,1.1113,57,6.491324,7.340744,18.03121,90.0,90.0,90.0
9049,O10Sb4V2,2.285,15,9.416981,9.416981,5.610849,85.089,85.089,30.71196
9050,Na2P2Sn2,0.5369,186,3.962555,3.962555,11.68281,90.0,90.0,120.0015
9051,Br8Ge38P8,1.409,218,10.55243,10.55243,10.55243,90.0,90.0,90.0
9052,F4O4Sb4,3.3005,62,4.15592,5.816587,8.97337,90.0,90.0,90.0
9053,Br10In2Sn4,2.2584,140,9.49242,9.49242,9.49242,127.142,127.142,78.01915
9054,Al4H20Sr4,3.5512,19,4.454871,5.150713,12.58771,90.0,90.0,90.0
9055,Nb8O40P8,2.6777,14,5.374708,13.2437,13.28495,61.01673,90.0,90.0