,full_formula,band_gap,spacegroup.number,structure.lattice.a,structure.lattice.b,structure.lattice.c,structure.lattice.alpha,structure.lattice.beta,structure.lattice.gamma
2787,Ca2Cl4,5.3405000000000005,136,6.456666,6.456666,4.202581,90.0,90.0,90.0
2788,F2Xe1,2.6558,139,4.810611,4.810611,4.810611,123.4236,123.4236,84.1659
2789,O4Ti2,2.2662,136,4.674861,4.674861,3.025881,90.0,90.0,90.0
2790,N8Si6,4.2469,176,7.660258,7.660197,2.924892,90.0,90.0,119.9995
2791,K3Sb1,0.6824,225,6.052975,6.052975,6.052975,60.0,60.0,60.0
2792,Co4Sb12,0.152,204,7.870081,7.870081,7.870081,109.4712,109.4712,109.4712
2793,N1Y1,0.146,225,3.478184,3.478184,3.478184,60.0,60.0,60.0
2794,I1Li1,4.2453,225,4.255223,4.255223,4.255223,60.0,60.0,60.0
2795,O2Zn2,1.8227,186,3.1982,3.197997,5.130201,90.0,90.0,120.0021
2796,O2Zn2,1.8234,186,3.198181,3.198181,5.129148,90.0,90.0,119.9964
2797,Rb2Te1,1.892,225,6.07968,6.07968,6.07968,60.0,60.0,60.0
2798,O4Zr2,3.8706,137,3.642608,3.642608,5.300578,90.0,90.0,90.0
2799,O8Si4,5.3617,194,5.2751,5.2751,8.617736,90.0,90.0,119.9998
2800,Nb4O10,2.7746,15,6.928434,6.928434,5.618781,77.08947,77.08947,41.86476
2801,Mg8O8,3.0749,72,8.177995,8.177995,8.177995,150.1778,135.3257,54.64168
2802,O8Si4,4.0083,205,4.486695,4.486695,4.486695,90.0,90.0,90.0
2803,Sn1Te1,0.0745,225,4.562446,4.562446,4.562446,60.0,60.0,60.0
2804,Fe12S12,0.8008000000000001,40,6.323878,6.323878,11.95831,90.0,90.0,120.5137
2805,Eu1Te1,0.8387,225,4.708361,4.708361,4.708361,60.0,60.0,60.0
2806,O8Pr4,0.8251000000000001,62,3.666881,6.041857,6.991077,90.0,90.0,90.0
2807,N8S16,1.7236,102,11.81351,11.81351,4.353779,90.0,90.0,89.98385
2808,Co4Sb12,0.1534,204,7.871369,7.871369,7.871369,109.4712,109.4712,109.4712
2809,O8Zr4,3.4744,14,5.284514,5.217501,5.402186,80.35584,90.0,90.0
2810,Li3N1,0.9983000000000001,191,3.650284,3.650882,3.877947,90.0,90.0,119.9946
2811,Hf4O8,4.0062,14,5.197556,5.13857,5.317297,80.3507,90.0,90.0
2812,C1Os1,0.4066,216,3.258004,3.258004,3.258004,60.0,60.0,60.0
2813,Al2F6,7.6466,167,5.101267,5.101319,5.101322,58.61706,58.61747,58.61728
2814,Cl4Pd2,1.6219000000000001,58,3.40588,4.170992,11.58056,90.0,90.0,90.0
2815,O4Si2,5.0062,136,4.233005,4.233005,2.6933,90.0,90.0,90.0
2816,Ca18Ge24,0.33140000000000003,176,8.772543,8.772512,15.25639,90.0,90.0,120.0019
2817,F3Sc1,6.5705,221,4.123667,4.123667,4.123667,90.0,90.0,90.0
2818,Br6Pr2,1.6068,176,8.231852,8.231852,9.204164,90.0,90.0,120.0
2819,In16Se12,0.1433,58,4.164633,12.49208,15.48713,90.0,90.0,90.0
2820,Cl2Ni1,2.8268,166,6.176197,6.176197,6.176197,33.04006,33.04006,33.04006
2821,F3Sc1,6.5953,221,4.118619,4.118619,4.118619,90.00666,90.00666,90.00666
2822,Al6F18,7.5122,63,7.01698,7.01698,7.231463,90.0,90.0,119.9431
2823,O8Te4,3.0621,19,4.449772,5.13991,8.684083,90.0,90.0,90.0
2824,Mg2Te2,2.3746,186,4.606536,4.606536,7.479241,90.0,90.0,120.0013
2825,Mg1S1,3.3871,216,4.02376,4.02376,4.02376,60.0,60.0,60.0
2826,Ni1O1,1.7944,225,2.990112,2.990112,2.990112,60.0,60.0,60.0
2827,Rb8Te4,1.717,62,5.628551,9.161794,11.11355,90.0,90.0,90.0
2828,Ga4S4,1.7785000000000002,194,3.617912,3.617912,16.19177,90.0,90.0,120.0007
2829,Cd11I22,2.3915,156,4.312924,4.3129349999999995,80.30964,90.0,90.00026,120.0001
2830,Br20Sr10,4.3076,85,11.7568,11.7568,7.280661,90.0,90.0,90.0
2831,Mg1O1,4.4699,225,3.007174,3.007174,3.007174,60.0,60.0,60.0
2832,O4Pb2,0.0236,136,5.078082,5.078082,3.452497,90.0,90.0,90.0
2833,Cs1H1,2.5936,221,3.8426929999999997,3.8426929999999997,3.8426929999999997,90.0,90.0,90.0
2834,O6Si3,5.5363,180,5.103155,5.103155,5.593692,90.0,90.0,120.0
2835,O4Ti2,2.2596,136,4.668829,4.668829,3.023727,90.0,90.0,90.0
2836,Cd12I24,2.2609,186,4.312822,4.312802,86.74801,90.0,90.0,120.0002
2837,Cd2S2,1.2567,186,4.189381,4.188996,6.816823,90.0,90.0,120.003
2838,C1Ru1,0.9586,216,3.21918,3.21918,3.21918,60.0,60.0,60.0
2839,As8S8,2.084,15,7.383079,7.383079,9.484684,81.36871,81.36871,85.9383
2840,O24W8,1.5006,2,7.545929,7.800631,7.654043,89.39923,89.52123,89.54822
2841,Se2Ti2,0.1411,194,3.8926790000000002,3.893071,6.691235,90.0,90.0,119.9967
2842,Pb1Se1,0.39790000000000003,225,4.386695,4.386695,4.386695,60.0,60.0,60.0
2843,Os8Si12,0.7296,116,5.632942,5.632942,8.926269,90.0,90.0,90.0
2844,C1Sn1,0.09140000000000001,216,3.6609,3.6609,3.6609,60.0,60.0,60.0
2845,S24Zn24,2.6754,156,3.798499,3.798474,74.46405,89.99991,90.0,120.0002
2846,F4Mn2,2.5839,136,4.971388,4.971388,3.34312,90.0,90.0,90.0
2847,N10P6,3.5509,15,5.044781,5.044781,9.241805,69.40733,69.40733,71.50393
2848,Be1S1,3.1436,216,3.447188,3.447188,3.447188,60.0,60.0,60.0
2849,N16Si12,4.663,159,7.807966,7.807964,5.660553,89.99977,90.00024,120.0
2850,S2Zr1,1.041,164,3.692656,3.69243,6.448758,89.99907,90.0,120.002
2851,Bi2Cl6,3.552,31,4.149744,6.481412,11.07695,90.0,89.93857,90.0
2852,As1Ga1,0.2707,216,4.059789,4.059789,4.059789,60.0,60.0,60.0
2853,O16Si8,5.5491,15,7.236065,7.236065,7.227681,75.55593,75.55593,119.872
2854,P16Zn8,1.3924,92,5.083825,5.083825,18.52017,90.0,90.0,90.0
2855,Cl2Fe1,2.8233,12,3.613038,3.613038,6.178129,89.65082,90.34918,118.9986
2856,Br1K1,4.3269,225,4.737205,4.737205,4.737205,60.0,60.0,60.0
2857,Cd13I26,2.27,156,4.314763,4.314763,94.13096,90.00217,89.99783,120.0009
2858,I1K1,3.8625,225,5.072013,5.072013,5.072013,60.0,60.0,60.0
2859,Al12S18,3.0862,169,6.613973,6.613973,17.28779,90.0,90.0,120.0
2860,Nd16O24,3.3963,206,9.725177,9.725177,9.725177,109.4712,109.4712,109.4712
2861,Ga1N1,0.6139,225,3.005004,3.005004,3.005004,60.0,60.0,60.0
2862,O16Si8,5.5282,14,4.961862,8.709098000000001,8.87276,69.46206,90.0,90.0
2863,Cl1K1,4.8085,221,3.836055,3.836055,3.836055,90.0,90.0,90.0
2864,O14V8,0.6331,2,7.72323,5.758933,12.26869,91.50469,85.6326,58.13859
2865,H12N4,4.1792,198,5.260727,5.260727,5.260727,90.0,90.0,90.0
2866,F3Sc1,6.5706,221,4.123691,4.123691,4.123691,90.0,90.0,90.0
2867,C4O8,6.61,205,5.894251,5.894251,5.894251,90.0,90.0,90.0
2868,O6Rh4,1.7251,167,5.581962,5.581962,5.581962,55.60246,55.60246,55.60246
2869,O10Sb4,0.48150000000000004,15,6.882168,6.882168,5.513938,77.2821,77.2821,41.64215
2870,O8Si4,5.5246,92,5.056009,5.056009,7.033717,90.0,90.0,90.0
2871,C6Si6,2.0174,186,3.094687,3.094677,15.1831,90.0,90.0,120.0001
2872,O6Si3,5.6933,154,4.999893,4.999897,5.498195,90.00001,90.00001,120.0004
2873,Ba1O2,2.2197,139,4.423784,4.423784,4.423784,128.1562,128.1562,76.37208
2874,Cd2Se2,0.6882,186,4.3719850000000005,4.3719850000000005,7.139036,90.0,90.0,119.9944
2875,As16S18,1.7288000000000001,13,10.30773,9.623814,10.729610000000001,79.10879,90.0,90.0
2876,Mg1O1,4.4688,225,3.007285,3.007285,3.007285,60.0,60.0,60.0
2877,Ge3O6,3.1388,152,5.06553,5.065459,5.751903,89.99778,90.00254,120.0036
2878,F4Mg2,6.8283000000000005,136,4.6912,4.6912,3.096,90.0,90.0,90.0
2879,O6Si3,5.7234,152,4.975129,4.97644,5.471881,89.99691,89.99682,120.0003
2880,O4Ti2,2.2517,136,4.673834,4.673834,3.025668,90.0,90.0,90.0
2881,Fe2Se4,1.1662,58,3.688977,4.847359,5.905762,90.0,90.0,90.0
2882,Rh8S12,0.6042000000000001,60,6.050733,6.21552,8.563187,90.0,90.0,90.0
2883,O16Sb8,1.9033,33,4.911214,5.542161,11.92153,89.99916,90.0,90.00001
2884,Cd10I20,2.3788,156,4.312851,4.312851,72.68257,90.0028,89.9972,120.0011
2885,Cd4S8,1.2558,205,6.386343,6.386343,6.386343,90.0,90.0,90.0
2886,Eu1S1,0.6501,225,4.226791,4.226791,4.226791,60.0,60.0,60.0
2887,Mg3Sb2,0.213,164,4.59952,4.598884,7.275089,89.99583,90.0,120.0046
2888,Te1Zn1,1.479,216,4.340815,4.340815,4.340815,60.0,60.0,60.0
2889,O6Si3,5.7088,154,4.979102,4.982526,5.472812,90.00082,90.00714,119.993
2890,Cd1Te1,0.7091000000000001,216,4.667966,4.667966,4.667966,60.0,60.0,60.0
2891,B1P1,1.248,216,3.215091,3.215091,3.215091,60.0,60.0,60.0
2892,Br6Gd4,0.1563,12,8.903027999999999,8.903027999999999,11.15844,59.48845,59.48845,25.97874
2893,Ba1S1,2.1524,225,4.5666,4.5666,4.5666,60.0,60.0,60.0
2894,N48Sr8,3.6734,70,6.176748,11.64626,12.12333,90.0,90.0,90.00658
2895,F18Pr6,5.1607,165,7.182805,7.180441,7.346197,90.01512,90.0,120.0109
2896,S2V2,0.39980000000000004,194,3.631172,3.631172,6.109236,90.0,90.0,120.0031
2897,O6V4,0.034,167,5.559042,5.559042,5.559042,54.80634,54.80634,54.80634
2898,Ho16O24,3.9532,206,9.182592,9.182592,9.182592,109.4712,109.4712,109.4712
2899,B1N1,4.4562,216,2.5634930000000002,2.5634930000000002,2.5634930000000002,60.0,60.0,60.0
2900,Ru4Se8,0.864,205,6.021303,6.021303,6.021303,90.0,90.0,90.0
2901,B2I6,2.6789,176,7.370495,7.370249,8.355027,90.0,90.0,119.9948
2902,C1N2,0.11860000000000001,119,3.4663589999999997,3.4663589999999997,3.4663589999999997,138.2804,138.2804,60.47384
2903,In12Ru4,0.1768,118,7.046349,7.046349,7.292358,90.0,90.0,90.0
2904,As4Ru2,0.47950000000000004,58,3.001069,5.471794,6.258998,90.0,90.0,90.0
2905,Cl16Yb8,3.3945,61,6.724837,6.953819,13.20759,90.0,90.0,90.0
2906,P16Zn24,0.6872,137,7.99694,7.99694,11.2951,90.0,90.0,90.0
2907,C2Yb1,0.1937,139,4.199196,4.199196,4.199196,125.3865,125.3865,80.89882
2908,Bi4Cl12,3.5493,4,6.438425,8.247653,10.92203,90.0,90.0,90.0
2909,O8Zr4,3.474,14,5.299348,5.20733,5.37405,80.50403,90.0,90.0
2910,O8Si4,5.3648,194,5.276469,5.276469,8.609379,90.0,90.0,120.0002
2911,Ag2I2,1.9997,186,4.695546,4.695546,7.696407,90.0,90.0,119.9944
2912,Al4O6,5.8535,167,5.181023,5.181023,5.181023,55.28707,55.28707,55.28707
2913,O10Ta4,3.2114,15,6.958377,6.958377,5.6163419999999995,77.73837,77.73837,41.58405
2914,Os16Si24,0.8937,60,5.61248,9.012188,11.20872,90.0,90.0,90.0
2915,O8Si4,5.5269,92,5.057639,5.057639,7.012322,90.0,90.0,90.0
2916,Pd4Se8,0.5322,61,5.7792069999999995,5.930233,8.300439,90.0,90.0,90.0
2917,F1Na1,6.1348,225,3.313331,3.313331,3.313331,60.0,60.0,60.0
2918,As8O12,4.0255,227,8.144037,8.144037,8.144037,60.0,60.0,60.0
2919,Ba1Cl2,5.4354,225,5.238365,5.238365,5.238365,60.0,60.0,60.0
2920,Ru4Te8,0.3168,205,6.479958,6.479958,6.479958,90.0,90.0,90.0
2921,O16Ti8,2.5731,61,5.264102,5.543702,9.359953,90.0,90.0,90.0
2922,F1Li1,8.7442,225,2.884361,2.884361,2.884361,60.0,60.0,60.0
2923,Ga4Se4,0.7823,187,3.812615,3.812615,16.2743,90.0,90.0,119.9945
2924,O6Si3,5.6958,152,4.993811,4.993594,5.505736,89.99579,89.99949,119.9991
2925,Pb1S1,0.4691,225,4.247816,4.247816,4.247816,60.0,60.0,60.0
2926,Ga4Ru2,0.1155,70,5.993694,4.971257,4.747862,76.11114,53.6262,50.26266
2927,Ca8Si4,0.307,62,4.808932,7.616381,9.035292,90.0,90.0,90.0
2928,Mg12O12,3.2951,15,8.733224,8.733224,5.680258,89.74934,89.74934,59.92487
2929,Al4O6,5.8501,167,5.180427,5.180427,5.180427,55.30089,55.30089,55.30089
2930,Pb1Se1,0.398,225,4.386717,4.386717,4.386717,60.0,60.0,60.0
2931,O4Pb4,2.1589,57,4.80081,5.737374,6.164877,90.0,90.0,90.0
2932,K4O12,0.6254000000000001,140,7.219691,7.219691,7.219691,104.6623,104.6623,119.5878
2933,N16Si12,4.6501,159,7.808019,7.808019,5.658732,89.99999,89.99999,120.0001
2934,O8Ti4,2.8259,60,4.614314,5.025803,5.59127,90.0,90.0,90.0
2935,N16Si12,4.6552,159,7.807762,7.807762,5.658461,90.0,90.0,120.0
2936,Cl1K1,4.8085,221,3.836055,3.836055,3.836055,90.0,90.0,90.0
2937,Cr3Si6,0.9294,180,4.420943,4.420943,6.366926,90.0,90.0,120.0
2938,Mg2Se2,2.5723000000000003,186,4.256949,4.256949,6.862683,90.0,90.0,120.0026
2939,S14Zn14,2.6892,156,3.798981,3.798975,43.46307,89.99997,90.0,120.0
2940,Be2Br4,5.1884,72,7.116876,7.116876,7.116876,133.786,128.56,71.62101
2941,Li4P20,1.2522,33,6.598221,6.680851,10.5236,90.0,89.99814,90.0
2942,O2Zn2,1.8258,186,3.198793,3.198584,5.126044,90.0,90.0,120.0022
2943,Br2Cr1,1.6653,12,4.097786,4.097786,6.491035,86.33228,86.33228,53.90432
2944,Cl6Pr2,3.0164,176,7.530842,7.524034,4.319818,90.0,90.0,120.0998
2945,Ca1F2,5.136,123,3.748474,3.748474,3.019565,90.0,90.0,90.0
2946,Cl1K1,5.0321,225,4.519303,4.519303,4.519303,60.0,60.0,60.0
2947,S1Sr1,2.4957000000000003,225,4.286869,4.286869,4.286869,60.0,60.0,60.0
2948,Bi8O12,1.6323,114,8.004396,8.004396,5.722108,90.0,90.0,90.0
2949,F18La6,7.6727,165,7.307279,7.307279,7.475777,89.99987,90.00013,120.0006
2950,Ba1O1,2.0909,225,3.9703559999999998,3.9703559999999998,3.9703559999999998,60.0,60.0,60.0
2951,Ge6N8,1.8125,176,8.131058,8.131051,3.113537,90.0,90.0,119.9996
2952,S1Zn1,2.6775,216,3.798236,3.798236,3.798236,60.0,60.0,60.0
2953,Ca4H8,3.0266,62,3.563386,5.886407,6.755192,90.0,90.0,90.0
2954,Al2N2,4.0492,186,3.130415,3.130415,5.017174,90.0,90.0,119.9993
2955,Cl18Ti6,2.4646,5,6.35164,6.416463,19.08869,90.16631,89.66399,119.6664
2956,Pb1Se1,0.39840000000000003,225,4.386927,4.386927,4.386927,60.0,60.0,60.0
2957,N8Si6,4.2472,176,7.660426,7.660433,2.924668,90.0,90.0,119.9998
2958,Ho1N1,0.08510000000000001,225,3.449932,3.449932,3.449932,60.0,60.0,60.0
2959,C4O8,6.6136,205,5.879436,5.879436,5.879436,90.0,90.0,90.0
2960,Al4O6,5.8393,167,5.17892,5.17892,5.17892,55.34182,55.34182,55.34182
2961,O24Y16,4.0576,206,9.267152,9.267152,9.267152,109.4712,109.4712,109.4712
2962,F3Sc1,6.5706,221,4.123683,4.123683,4.123683,90.0,90.0,90.0
2963,Li6N2,1.2215,194,3.562658,3.562658,6.3540600000000005,90.0,90.0,120.0036
2964,Mo2Te4,0.8398,194,3.56304,3.563103,14.59459,90.0,90.0,119.9994
2965,Dy1N1,0.049100000000000005,225,3.473112,3.473112,3.473112,60.0,60.0,60.0
2966,Fe4S8,2.0173,205,5.521953,5.521953,5.521953,90.0,90.0,90.0
2967,O16Si8,4.4828,98,12.06573,12.06573,12.06573,152.1437,152.1437,39.80351
2968,Ce1O2,2.4184,225,3.885077,3.885077,3.885077,60.0,60.0,60.0
2969,I8U2,1.6682000000000001,15,8.918313,8.918313,7.772133,88.87488,88.87488,61.03436
2970,Sb8Se12,0.7562,62,4.03145,11.55003,12.79288,90.0,90.0,90.0
2971,O2Th1,4.5405,225,4.119783,4.119783,4.119783,60.0,60.0,60.0
2972,Bi2I6,2.5185,148,8.714139,8.714139,8.714139,53.09717,53.09717,53.09717
2973,O6Si3,5.5364,180,5.102542,5.102542,5.5946169999999995,90.0,90.0,120.0
2974,S2Sn1,1.3687,164,3.751801,3.7516410000000002,6.678491,89.99839,90.0,120.0014
2975,Cr3Si6,0.9304,180,4.419803,4.419803,6.366982,90.0,90.0,120.0
2976,Cd1Te1,0.7091000000000001,216,4.667966,4.667966,4.667966,60.0,60.0,60.0
2977,I6Pb3,2.3978,156,4.64805,4.64803,22.43393,90.00391,90.0,120.0001
2978,As8S8,2.0665,15,7.314602,7.314602,9.584435,81.21166,81.21166,85.56536
2979,Cr2I4,0.6855,36,4.133737,4.133737,14.90284,90.0,90.0,117.2113
2980,O4Si2,5.0151,136,4.232356,4.232356,2.692862,90.0,90.0,90.0
2981,Se2Zr1,0.319,164,3.806555,3.806568,6.52976,90.0027,90.0,119.9999
2982,Ru2Te4,0.5187,58,4.068948,5.352148,6.476274,90.0,90.0,90.0
2983,N8Si6,4.2487,176,7.660997,7.660924,2.924681,90.0,90.0,119.9996
2984,In12Se18,1.0768,169,7.308318,7.308318,19.65845,90.0,90.0,120.0
2985,Ga1N1,1.7509000000000001,216,3.200741,3.200741,3.200741,60.0,60.0,60.0
2986,Gd16O24,3.6128,206,9.421492,9.421492,9.421492,109.4712,109.4712,109.4712
2987,In12S14,0.3335,11,3.929716,9.211379,17.49324,77.96066,90.0,90.0
2988,Mg4O8,3.7333,205,4.8975919999999995,4.8975919999999995,4.8975919999999995,90.0,90.0,90.0
2989,Hf4O8,4.0206,14,5.196834,5.139502,5.320045,80.38471,90.0,90.0
2990,Bi8S12,1.3696000000000002,62,4.024853,11.17143,11.62566,90.0,90.0,90.0
2991,S2Sn1,1.3588,164,3.742749,3.742969,6.686628,90.00254,90.0,119.9981
2992,Be2O2,7.4496,186,2.711275,2.711281,4.40484,90.0,90.0,119.9999
2993,Eu1S1,0.7163,225,4.245118,4.245118,4.245118,60.0,60.0,60.0
2994,Al1As1,1.5011,216,4.054029,4.054029,4.054029,60.0,60.0,60.0
2995,O4Si2,5.0094,136,4.231697,4.231697,2.693434,90.0,90.0,90.0
2996,O8Zr4,3.4708,14,5.285669,5.219817,5.396782,80.39488,90.0,90.0
2997,S1Sr1,2.4981,225,4.288604,4.288604,4.288604,60.0,60.0,60.0
2998,Cd2Se2,0.6899000000000001,186,4.37399,4.3736,7.133599,90.0,90.0,120.003
2999,Ge4O8,3.1721,92,5.028328,5.028328,7.255963,90.0,90.0,90.0
3000,Cd14I28,2.2464,156,4.312552,4.31253,101.8773,90.00212,90.0,120.0002
3001,Cl32Te8,3.1412,15,10.66379,10.663640000000001,16.29333,67.30994,67.30806,62.9073
3002,Cl1Li1,6.2497,225,3.642952,3.642952,3.642952,60.0,60.0,60.0
3003,Ce1O2,2.4184,225,3.885056,3.885056,3.885056,60.0,60.0,60.0
3004,Os2P4,0.9186000000000001,58,2.948978,5.117865,5.944167,90.0,90.0,90.0
3005,Bi8Se12,0.9733,62,4.157805,11.61947,12.35322,90.0,90.0,90.0
3006,F4Kr2,2.7901,136,4.754266,4.754266,6.144958,90.0,90.0,90.0
3007,Br16Si4,4.0656,14,7.274617,11.04807,11.20613,76.95942,90.0,90.0
3008,O4Ti2,2.2654,136,4.671892,4.671892,3.023856,90.0,90.0,90.0
3009,Na8S4,2.176,62,4.315617,7.110234,8.364972999999999,90.0,90.0,90.0
3010,Ba8I16,1.7262,2,7.492757,12.76659,13.71672,85.63565,90.43986,89.83643000000001
3011,F3Sc1,6.5706,221,4.123687,4.123687,4.123687,90.0,90.0,90.0
3012,Eu1S1,0.7163,225,4.245118,4.245118,4.245118,60.0,60.0,60.0
3013,Ag4O4,0.36460000000000004,14,3.6164069999999997,5.5477039999999995,5.7833749999999995,74.34648,90.0,90.0
3014,Mn4S8,1.2343,205,5.647779,5.647779,5.647779,90.0,90.0,90.0
3015,O16Ti8,2.5775,61,5.269902,5.5446159999999995,9.354218,90.0,90.0,90.0
3016,As8O12,2.9038,14,12.98142,4.765115,6.416182,79.89837,90.0,90.0
3017,Pb1Se1,0.3985,225,4.38696,4.38696,4.38696,60.0,60.0,60.0
3018,Ge3O6,3.1366,152,5.098397,5.098485,5.762245,89.99839,89.99969,119.9984
3019,As4Te6,0.44370000000000004,12,7.689646,7.689646,10.07931,84.39801,84.39801,30.74464
3020,C27Si27,1.9683000000000002,156,3.094218,3.094213,68.32964,90.0,90.0,120.0001
3021,S2Zn2,2.7365,186,3.794759,3.794759,6.221548,90.0,90.0,119.9966
3022,O2Sn2,0.3236,129,3.8587949999999998,3.8587949999999998,4.956449,90.0,90.0,90.0
3023,Br8Cu8,0.7512000000000001,205,6.975245,6.975245,6.975245,90.0,90.0,90.0
3024,Cl20Nb4,2.4763,14,12.63343,7.495295,10.55814,97.41866,90.0,90.0
3025,F4Ge1,5.2736,217,4.819688,4.819688,4.819688,109.4712,109.4712,109.4712
3026,C8Si8,1.776,186,3.094382,3.094392,20.24755,90.0,90.0,119.9999
3027,Br4Ca2,4.5853,58,4.383799,6.673662,6.964881,90.0,90.0,90.0
3028,N4O8,1.9555,11,5.850161,5.521547,5.8375509999999995,75.0799,90.0,90.0
3029,Ca8Pb4,0.0263,62,5.138183,7.988047,9.688894,90.0,90.0,90.0
3030,Se4W2,1.209,194,3.33102,3.331039,13.83626,90.0,90.0,119.9998
3031,As2Na6,0.1506,194,5.059053,5.059053,9.005053,90.0,90.0,120.0039
3032,Cs12P28,2.3641,76,9.27901,9.27901,16.94735,90.0,90.0,90.0
3033,O4Ti2,2.2599,136,4.674218,4.674218,3.024696,90.0,90.0,90.0
3034,As8Th6,0.09240000000000001,220,7.845233,7.845233,7.845233,109.4712,109.4712,109.4712
3035,O8Zr4,3.4926,14,5.279721,5.222449,5.404743,80.3126,90.0,90.0
3036,Cd4I8,2.393,156,4.310294,4.310258,28.99703,90.00186,90.0,120.0003
3037,Fe2Se2,0.578,67,4.440077,4.440077,5.428395,90.0,90.0,89.78273
3038,Ge1Te1,0.369,225,4.248902,4.248902,4.248902,60.0,60.0,60.0
3039,Bi8O12,1.6737000000000002,114,8.025476,8.025476,5.7303619999999995,90.0,90.0,90.0
3040,As16S16,2.3335,14,18.08191,7.635896,9.839255,82.25627,90.0,90.0
3041,Ga6Te6,0.8924000000000001,12,9.109624,9.109624,10.6524,75.51046,75.51046,26.25239
3042,O8Si4,4.0163,205,4.48622,4.48622,4.48622,90.0,90.0,90.0
3043,Sn1Te1,0.0745,225,4.562437,4.562437,4.562437,60.0,60.0,60.0
3044,Rb8Te4,1.6957,62,5.601923,9.254796,11.10495,90.0,90.0,90.0
3045,C2O4,6.4257,58,4.418926,4.512993,5.005221,90.0,90.0,90.0
3046,Cl12Pt6,2.4118,166,8.729404,8.729404,8.729404,108.2032,108.2032,108.2032
3047,O12Rb4,0.8757,14,6.163976,6.617762,7.727317,76.95999,90.0,90.0
3048,O6V4,0.031100000000000003,167,5.55926,5.55926,5.55926,54.80552,54.80552,54.80552
3049,Al4O6,5.8513,167,5.181479,5.181479,5.181479,55.28437,55.28437,55.28437
3050,Br2Cu2,0.9568000000000001,194,4.150987,4.150987,6.420096,90.0,90.0,119.9898
3051,K4S6,1.2573,36,6.262185,6.262185,7.616709,90.0,90.0,107.6497
3052,As4Cd2,0.21980000000000002,98,6.206987,6.206987,6.206987,98.51263,98.51263,134.7444
3053,S1Yb1,1.1708,225,4.03701,4.03701,4.03701,60.0,60.0,60.0
3054,Os8Si16,0.7304,64,6.531636,6.531636,8.265462,90.0,90.0,102.9149
3055,O4Zr2,3.8688000000000002,137,3.643315,3.643315,5.298808,90.0,90.0,90.0
3056,O4Zr2,3.8645,137,3.642691,3.642691,5.299569,90.0,90.0,90.0
3057,Co4Sb12,0.1535,204,7.871721,7.871721,7.871721,109.4712,109.4712,109.4712
3058,Ru4Se8,0.8632000000000001,205,6.021252,6.021252,6.021252,90.0,90.0,90.0
3059,F20U4,2.9409,122,8.655651,8.655651,8.655651,95.49351,95.49351,143.9529
3060,Mo2Se4,1.0335,194,3.3371969999999997,3.336615,13.5684,90.0,90.0,120.0058
3061,O2Zn2,1.8249,186,3.198563,3.198356,5.127381,90.0,90.0,120.0021
3062,O4Ti2,2.5534,141,5.576637,5.576637,5.576637,139.4682,139.4682,58.66171
3063,Al2N2,4.0583,186,3.1284,3.1284,5.0129,90.0,90.0,120.0
3064,Cl12Tb4,4.5118,136,6.538933,6.538933,11.77043,90.0,90.0,90.0
3065,Ge1Mn2,0.1315,216,3.882789,3.882789,3.882789,60.0,60.0,60.0