,full_formula,band_gap,spacegroup.number,structure.lattice.a,structure.lattice.b,structure.lattice.c,structure.lattice.alpha,structure.lattice.beta,structure.lattice.gamma
7743,Mo4Ni4O16,2.7444,12,6.5860769999999995,6.5860769999999995,7.7542159999999996,72.52091,72.52091,84.89
7744,B8S16Sr4,2.8327,14,14.26413,6.146554,6.551312,70.23678,90.0,90.0
7745,N1Na2Tl1,0.0575,225,4.748281,4.748281,4.748281,60.0,60.0,60.0
7746,Na4O18Te8,3.0894,2,10.90091,7.005236,7.495868,70.73976,69.00525,75.66872
7747,Ag4I12K8,2.8891999999999998,62,4.854389,10.21241,19.8283,90.0,90.0,90.0
7748,Be4F16Pb4,5.1934000000000005,62,5.408647,7.409504,9.283974,90.0,90.0,90.0
7749,C4Ca22N20,0.7693,136,14.56958,14.56958,3.6155559999999998,90.0,90.0,90.0
7750,As8Ba8Ge4,0.5303,14,9.814112,7.768712,8.862532,73.94902,90.0,90.0
7751,O8Si2Zn4,3.318,227,5.725596,5.725596,5.725596,60.0,60.0,60.0
7752,Be4F16Rb8,6.6465,62,5.988336,7.796922,10.44736,90.0,90.0,90.0
7753,Ba4Ge2Se8,1.3780000000000001,11,7.183831,7.148187,9.312922,71.04382,90.0,90.0
7754,Cu2Ga2Se4,0.4127,122,6.884991,6.884991,6.884991,131.2104,131.2104,71.47902
7755,Ca8O16Si4,4.259,14,6.069695,5.604713,12.16055,84.72535,90.0,90.0
7756,B4Cs4F16,7.5547,62,6.005248,7.8281469999999995,9.833069,90.0,90.0,90.0
7757,B6Cs2H16,5.9689,40,5.773017,5.773017,9.181412,90.0,90.0,98.81103
7758,Cd2K4Sn2,0.0684,40,6.991984,6.991984,6.531722,90.0,90.0,103.5775
7759,B1Pt1V1,0.9063,216,3.902987,3.902987,3.902987,60.0,60.0,60.0
7760,B4Cl4F24,3.3335,14,9.262831,6.089306,9.347747,81.45628,90.0,90.0
7761,Nb1Ni2Sc1,0.2388,216,4.325288,4.325288,4.325288,60.0,60.0,60.0
7762,Bi2Fe2O6,1.6747,161,5.734383,5.734383,5.734383,58.98567,58.98567,58.98567
7763,Bi4Ga8O18,2.9024,55,5.978343,8.004572,8.413064,90.0,90.0,90.0
7764,Cu4O8S2,1.3138,70,9.569027,8.027124,5.896308,85.37376,56.73393,37.89231
7765,Fe1Se4Ti2,0.864,12,7.234348,7.234348,6.451647,63.68631,63.68631,31.39613
7766,N8Pb4S8,1.3818000000000001,19,4.750097,7.944322,12.49064,90.0,90.0,90.0
7767,K24O36Se8,1.6292,92,8.274862,8.274862,17.76558,90.0,90.0,90.0
7768,Na2Nb2O6,1.8633000000000002,127,5.550485,5.550485,3.994688,90.0,90.0,90.0
7769,Li2N2Zr1,1.5774,164,3.303602,3.30361,5.485424,89.99937,90.00027,120.0003
7770,Cd2Co1V1,0.0451,216,4.473664,4.473664,4.473664,60.0,60.0,60.0
7771,B12H12Tl2,4.5325,202,7.6773489999999995,7.6773489999999995,7.6773489999999995,60.0,60.0,60.0
7772,Bi4K12O12,2.996,217,9.422067,9.422067,9.422067,109.4712,109.4712,109.4712
7773,B2H12N2,6.0441,31,5.032079,5.4484200000000005,5.228184,90.0,90.0,90.0
7774,Ca6Ge6O18,3.4124,2,7.3760069999999995,7.634569,8.23393,103.4985,94.84297,90.11451
7775,F8Pb2Sn2,3.5742000000000003,129,4.434252,4.434252,10.793,90.0,90.0,90.0
7776,Al2La2O6,3.7585,167,5.416614,5.416614,5.416614,60.28076,60.28076,60.28076
7777,Cr4O16Tl8,2.3828,12,7.17512,7.17512,15.13267,68.59835,68.59835,48.75601
7778,Hg1Ti1W2,0.053500000000000006,216,4.593782,4.593782,4.593782,60.0,60.0,60.0
7779,I2O8Rb2,2.4398,88,7.961168,7.961168,7.961168,135.1767,135.1767,65.25579
7780,C2Ca2O6,4.9816,167,6.485451,6.485451,6.485451,45.64666,45.64666,45.64666
7781,Bi2Fe2O6,1.6669,161,5.735543,5.735543,5.735543,58.99503,58.99503,58.99503
7782,K4O7V2,3.4257,12,6.143083,6.143083,7.371849,80.17264,80.17264,62.26104
7783,Ag2Ga2Te4,0.5254,122,7.632434,7.632434,7.632434,129.8972,129.8972,73.57111
7784,F12Pa2Rb2,3.9699999999999998,67,7.091442,7.091442,7.150496,90.0,90.0,110.9894
7785,Cu2Ga2Te4,0.44570000000000004,122,7.438962,7.438962,7.438962,131.4986,131.4986,71.02209
7786,B1Ir1Y2,0.46080000000000004,216,4.623701,4.623701,4.623701,60.0,60.0,60.0
7787,O22Sr6Te8,3.2034,2,10.1251,9.42779,7.680635,78.94808,64.44054,73.4348
7788,Ba4Ge8O20,1.7442000000000002,64,5.746664,5.746664,14.58117,90.0,90.0,121.4705
7789,Cs1F3Pb1,2.9226,221,4.901979,4.901979,4.901979,90.0,90.0,90.0
7790,O24P16S12,4.1411,14,8.75756,10.32546,13.05943,88.78145,90.0,90.0
7791,In1O3Y1,1.6435,221,4.107983,4.107983,4.107983,90.0,90.0,90.0
7792,Cd2Ge2P4,0.6959000000000001,122,6.843565,6.843565,6.843565,129.7588,129.7588,73.79266
7793,B4Ca6O12,4.8108,167,6.432491,6.432491,6.432491,84.97792,84.97792,84.97792
7794,C18Fe4O18,2.6748000000000003,176,6.679479,6.679501,16.19407,90.0,90.0,120.0019
7795,Ag4C4O8,3.1126,14,6.110432,3.815382,9.534278,83.62009,90.0,90.0
7796,La4O14Sn4,2.0896,227,7.75643,7.75643,7.75643,60.0,60.0,60.0
7797,O12Rh4Tb4,1.7439,62,5.319134,5.791728,7.708267,90.0,90.0,90.0
7798,Ga2Mn1Se4,1.4715,82,6.863674,6.863674,6.863674,130.1945,130.1945,73.09596
7799,F10O2Sn4,1.5169000000000001,12,5.84873,5.84873,8.545382,68.63672,68.63672,72.01659
7800,Mn2P2Se6,0.9148000000000001,148,8.097312,8.097312,8.097312,47.03503,47.03503,47.03503
7801,Ag3I1S1,0.9618000000000001,146,4.997562,4.997562,4.997562,89.97036,89.97036,89.97036
7802,Cl18P2Re2,1.5495999999999999,2,9.374702,9.878445,7.222809,96.18127,95.54442,101.7166
7803,Ba8N12V4,1.4631,64,6.587512,6.587512,13.09049,90.0,90.0,126.1658
7804,O8Pb2W2,3.3826,88,7.269033,7.269033,7.269033,135.0147,135.0147,65.50742
7805,O44P8W8,2.5562,62,6.333804,8.135777,16.07733,90.0,90.0,90.0
7806,Hg12I8S8,1.3081,74,11.96562,11.96562,11.96562,131.9675,130.4209,71.51196
7807,Ba12Ge4O4,0.3109,62,7.619895,7.723602,10.88007,90.0,90.0,90.0
7808,Br2In10Se10,0.7458,31,4.155189,9.455812,15.59294,90.0,90.0,90.0
7809,Ni4O16Sb8,1.9338000000000002,135,8.483465,8.483465,6.059949,90.0,90.0,90.0
7810,Cd8S12Si2,1.5094,9,7.201808,7.201808,12.55571,72.22677,72.22677,59.44785
7811,Au2Bi2Li4,0.0055000000000000005,63,5.562936,5.562936,5.6383980000000005,90.0,90.0,97.93732
7812,Ni4O16Sb8,1.9340000000000002,135,8.483696,8.483696,6.059094,90.0,90.0,90.0
7813,Ir1La2P1,0.2331,225,5.129306,5.129306,5.129306,60.0,60.0,60.0
7814,Bi1I1Te1,1.2292,156,4.423328,4.423328,7.199274,90.02214,89.97786,119.9876
7815,Ag2F12Pd2,1.3395000000000001,2,5.121808,10.16093,5.158622,76.81791,61.02856,77.17403
7816,Bi2Fe2O6,1.6667,161,5.733765,5.733765,5.733765,58.95832,58.95832,58.95832
7817,O14Pr4Ru4,0.422,227,7.43919,7.43919,7.43919,60.0,60.0,60.0
7818,Al2F10Tl4,4.0612,63,6.382047,6.382047,7.579806,90.0,90.0,89.99689
7819,Li12O14Si4,4.7957,113,7.804685,7.804685,4.911243,90.0,90.0,90.0
7820,Cd8O24Te8,3.1032,14,11.42479,7.598372,7.975592,65.83672,89.99941,89.99887
7821,Fe8O20Ti4,1.279,12,11.35826,11.23858,3.832852,80.18182,80.28629,51.81977
7822,Mo2O8Zr1,3.0555,12,5.9297059999999995,5.9297059999999995,6.245529,88.34556,88.34556,60.54506
7823,Al8O20Si4,4.8423,58,5.6119959999999995,7.871864,7.977165,90.0,90.0,90.0
7824,Al2O6Pr2,3.8956,167,5.366352,5.366352,5.366352,60.25325,60.25325,60.25325
7825,Cl12Cs2Sb2,1.9732,9,7.240916,7.240916,12.91068,78.72435,78.72435,56.15857
7826,Ba2O4Sn1,2.0651,139,7.373041,7.373041,7.373041,146.2682,146.2682,48.44859
7827,K4Mn2Se4,1.7526000000000002,72,8.255481,8.255481,8.255481,132.5876,127.9839,73.01286
7828,O8Si2Th2,4.8639,141,6.145298,6.145298,6.145298,106.1652,106.1652,116.3073
7829,Eu2F2O2,0.13040000000000002,166,6.922163,6.922163,6.922163,33.17731,33.17731,33.17731
7830,Ag3C6N9,3.8029,152,3.839498,3.839498,22.84305,90.0,90.0,120.0
7831,F18Rb6Zn6,5.2638,194,5.916713,5.916713,14.40728,90.0,90.0,120.0053
7832,Al1Nb1Pt1,0.2449,216,4.2883700000000005,4.2883700000000005,4.2883700000000005,60.0,60.0,60.0
7833,Fe2Na8O8,0.4773,2,8.541431,5.805706,5.805084,69.37561,67.75628,78.26043
7834,I4S4Sb4,1.6297000000000001,62,4.12456,9.041731,10.76149,90.0,90.0,90.0
7835,Br12Co1Sc7,0.3738,148,8.817232,8.817232,8.817232,106.8644,106.8644,106.8644
7836,Cl6K2Re1,2.3038,225,7.152515,7.152515,7.152515,60.0,60.0,60.0
7837,Mg2O8W2,3.3429,13,5.75986,4.746811,4.9994119999999995,89.19807,90.0,90.0
7838,Br12Cd2Rb8,3.2704,167,9.448165,9.448165,9.448165,89.3568,89.3568,89.3568
7839,C1K4O4,0.9539000000000001,8,5.751098,5.751098,6.309245,69.86071,69.86071,84.36757
7840,Al4Br16Cs4,4.2529,62,7.742681,10.18671,12.58453,90.0,90.0,90.0
7841,P4Si2Zn2,1.3662,122,6.488397,6.488397,6.488397,130.7115,130.7115,72.27179
7842,Cl20Cs8Tl4,1.8154,62,7.642038,9.666061,15.28642,90.0,90.0,90.0
7843,B4C4Mg2,1.3059,58,2.774634,4.62946,7.261411,90.0,90.0,90.0
7844,F4K2Mn1,2.8146,139,7.380523,7.380523,7.380523,146.5605,146.5605,48.01503
7845,Hf2Mo4O16,2.8272,15,7.017987,7.017987,7.546141,64.00957,64.00957,70.31775
7846,In10S12Tl2,1.0164,11,3.9692,8.904104,17.85068,85.02983,90.0,90.0
7847,Al6Bi10Cl24,1.8192,167,12.40089,12.40089,12.40089,58.02684,58.02684,58.02684
7848,Al2La2O6,3.2582,167,5.417159,5.417159,5.414296,59.98251,59.98251,60.0
7849,Al2Cd1Se4,2.049,82,6.830718,6.830718,6.830718,129.1271,129.1271,74.8061
7850,Hf4O18P4,3.5144,12,5.727909,5.727909,14.93169,69.07759,69.07759,55.52713
7851,C2Na4O6,3.1808,194,5.253456,5.253456,6.375839,90.0,90.0,119.9896
7852,Br4K2Pd1,1.6067,123,7.521132,7.521132,4.391014,90.0,90.0,90.0
7853,As6Sr4Zn4,0.1056,12,8.44141,8.44141,12.04118,55.11901,55.11901,29.52532
7854,Cl18Mo2P2,0.9033,2,9.298801,10.0042,7.3043700000000005,97.47962,94.65065,101.3961
7855,Al2Cl12I2,2.2643,4,11.86178,6.355102,7.401729,81.24034,90.0,90.0
7856,Ga8Li24N16,2.4745,206,8.36223,8.36223,8.36223,109.4712,109.4712,109.4712
7857,Bi2Fe2O6,1.6663999999999999,161,5.737863,5.737863,5.737863,58.87671,58.87671,58.87671
7858,Mg8O16Si4,4.4921,74,7.692617,7.692617,7.692617,136.0046,114.2437,82.52959
7859,Ca1F3Ga1,4.0848,221,4.456767,4.456767,4.456767,90.0,90.0,90.0
7860,Al4O10Ti2,3.4311,63,5.0855,5.0855,9.817103,90.0,90.0,138.0644
7861,C8Hg4N8,4.793,122,8.39008,8.39008,8.39008,107.7894,107.7894,112.8899
7862,Ge4K12Te12,1.047,15,10.6559,10.6559,9.824631,85.80216,85.80216,81.24721
7863,Br18Cs6Tb4,4.1296,167,10.476890000000001,10.476890000000001,10.476890000000001,83.58666,83.58666,83.58666
7864,C8N12Ni2,3.0263,58,6.05537,7.132258,7.346444,90.0,90.0,90.0
7865,Cl4K2Pd1,2.1793,123,7.152552,7.152552,4.179837,90.0,90.0,90.0
7866,Ca8O16Ru4,0.9749000000000001,61,5.484244,5.807359,11.65114,90.0,90.0,90.0
7867,La2Ni1O4,0.1796,139,6.945809,6.945809,6.945809,147.1674,147.1674,47.11596
7868,O8Pb3V2,0.2058,5,6.13372,6.13372,8.443433,67.023,67.023,82.03225
7869,Ag2Bi2K4,0.6643,20,6.854793,6.854793,6.4393519999999995,90.0,90.0,102.6711
7870,Cr1Cu2Pt1,0.0606,216,4.187139,4.187139,4.187139,60.0,60.0,60.0
7871,Mg16O48Si16,4.6723,61,5.237841,8.938763999999999,18.44838,90.0,90.0,90.0
7872,Cs4Mn4O16,2.2269,62,5.9842949999999995,8.249759,10.22803,90.0,90.0,90.0
7873,Mn12O32Ta8,2.6027,88,9.492401,9.492188,9.492182,105.9589,105.9597,116.7488
7874,O24Pb8Zr8,2.7643,55,5.993696,8.312278,11.95036,90.0,90.0,90.0
7875,Cs6H18Mg6,2.9296,59,6.127223,8.552154999999999,9.968577,90.0,90.0,90.0
7876,As12La4Zn12,0.018600000000000002,62,4.124639,11.63178,12.61955,90.0,90.0,90.0
7877,O8Si2Th2,4.8601,141,6.143223,6.143223,6.143223,106.2175,106.2175,116.1953
7878,Fe2K2S4,0.744,15,6.730283,6.730283,5.919087,75.31685,75.31685,111.2178
7879,Hf1W2Zn1,0.1743,216,4.57057,4.57057,4.57057,60.0,60.0,60.0
7880,Bi1Cr1O3,0.14880000000000002,221,3.914456,3.914456,3.914456,90.0,90.0,90.0
7881,Mg2Sb2Yb1,0.6498,164,4.695233,4.694907,7.599468,90.00155,90.0,120.0023
7882,F4O12Tc4,2.4854,14,5.270595,6.002367,9.545206,86.75976,90.0,90.0
7883,Mg2O6Ti2,3.8246,148,5.552136,5.552136,5.552136,55.14544,55.14544,55.14544
7884,F6K2Ti1,5.2253,164,5.882385,5.882444,4.739008,90.0,90.00007,120.0003
7885,Ca2F8Zn2,5.926,88,6.731666,6.731666,6.731666,133.7181,133.7181,67.52865
7886,Fe4O8Si2,2.4047,227,5.894348,5.894348,5.894348,60.0,60.0,60.0
7887,Cd2Ge2P4,0.6927,122,6.840843,6.840843,6.840843,129.6852,129.6852,73.91045
7888,K1La1Te2,1.4203999999999999,166,8.696829,8.696829,8.696829,31.54193,31.54193,31.54193
7889,Co4Nb8O24,3.187,60,5.091665,5.782939,14.36034,90.0,90.0,90.0
7890,As4La4O16,2.4963,2,11.2034,7.106006,7.327349,94.09194,141.6149,86.8189
7891,Cd1F3K1,3.3976,221,4.456849,4.456849,4.456849,90.0,90.0,90.0
7892,Cd1F3Sc1,0.40180000000000005,221,4.304537,4.304537,4.304537,90.0,90.0,90.0
7893,C2Mg2O6,4.9754000000000005,167,5.725915,5.725915,5.725915,48.41773,48.41773,48.41773
7894,O14Sn4Ta4,1.6339000000000001,227,7.595493,7.595493,7.595493,60.0,60.0,60.0
7895,Br16Cs8Zn4,3.9983,62,7.823929,10.41963,13.86291,90.0,90.0,90.0
7896,H14Mg6Tc2,2.9768,194,4.80605,4.80605,10.48548,90.0,90.0,120.0045
7897,Cl6Hf1Te4,1.2690000000000001,2,7.277348,7.189909,7.9493659999999995,75.0373,76.78857,80.27901
7898,In1Ir1La2,0.2802,216,5.122451,5.122451,5.122451,60.0,60.0,60.0
7899,Cu2O8Se2,0.2984,63,4.9024719999999995,4.9024719999999995,6.718458,90.0,90.0,110.1698
7900,K4O52Ta20,3.35,57,5.738714,10.87767,17.11022,90.0,90.0,90.0
7901,O8Si2Zr2,4.4655000000000005,141,5.620998,5.620998,5.620998,106.7925,106.7925,114.9728
7902,C2Na4O6,3.1665,194,5.258237,5.258621,6.39064,90.0,90.0,119.9976
7903,Fe4O24S6,2.1328,148,8.928090000000001,8.928090000000001,8.928090000000001,55.82968,55.82968,55.82968
7904,Rb8S28Ti6,1.6654,15,11.62113,11.62113,13.78028,67.75024,67.75024,41.98484
7905,O3Pb1Ti1,2.1813000000000002,221,4.00029,4.00029,4.00029,90.0,90.0,90.0
7906,Na8Se12Te4,1.1781,15,11.36251,11.36251,12.14429,60.18455,60.18455,30.82814
7907,O20Sb4Tl20,1.4973,36,8.232162,8.232162,14.21627,90.0,90.0,95.26741
7908,B6Nd2O12,3.8117,15,6.434782,6.435149,6.486302,62.3433,62.34465,78.95203
7909,F3Li1Sn1,2.9864,221,3.897551,3.897551,3.897551,90.0,90.0,90.0
7910,Ca2Rb2Sb2,1.5145,129,5.400815,5.400815,8.557762,90.0,90.0,90.0
7911,Al8O20Si4,3.9568000000000003,2,8.613354,5.322248,8.216784,83.05373,66.24827,81.23489
7912,Cr4Ni2O8,1.8854000000000002,141,6.023754,6.023754,6.023754,121.807,121.807,86.89774
7913,Cr2F14Rb6,0.779,127,8.223778,8.223778,6.043072,90.0,90.0,90.0
7914,Cu4Te6Ti2,0.18030000000000002,12,10.26514,10.26514,7.207392,83.5568,83.5568,22.72839
7915,Ag2O4Sc2,2.4628,194,3.284266,3.284332,12.629760000000001,90.0,90.0,119.9993
7916,O32Te12Zr4,3.6494,206,10.004,10.004,10.004,109.4712,109.4712,109.4712
7917,O16S4Tl8,3.7855,62,6.009554,7.952304,10.8495,90.0,90.0,90.0
7918,Ge2O6Zn2,2.658,148,5.424851,5.424851,5.424851,54.83748,54.83748,54.83748
7919,Gd8O4Se8,1.5314999999999999,62,3.98491,7.113619,16.34137,90.0,90.0,90.0
7920,Cr4S8Zn2,1.1668,227,7.136612,7.136612,7.136612,60.0,60.0,60.0
7921,O8Si2Zr2,4.0196,88,6.312016,6.312016,6.312016,135.4508,135.4508,64.83052
7922,Al8Ca8H40,2.9326,14,6.400357,8.790352,11.21419,88.34472,90.0,90.0
7923,Cd1Cl8Na6,4.2261,225,8.020996,8.020996,8.020996,60.0,60.0,60.0
7924,Er8Mo4O24,1.9993,15,9.894119,9.894119,5.35702,74.78244,74.78244,67.85667
7925,As2Ga2O8,3.1506,20,5.066835,5.066835,7.321818,90.0,90.0,89.30896
7926,Co2In4S8,1.313,227,7.572034,7.572034,7.572034,60.0,60.0,60.0
7927,F3K1Mn1,2.6988000000000003,221,4.267586,4.267586,4.267586,90.0,90.0,90.0
7928,Li2Nb2O6,3.4521,161,5.546639,5.546639,5.546639,55.91915,55.91915,55.91915
7929,Cr3Li1O8,1.7345000000000002,12,5.056044,5.056044,6.43632,89.19775,89.19775,66.38316
7930,Na8O12Pt4,1.8269000000000002,15,5.492322,5.492031,10.87091,85.06686,85.05575,120.011
7931,O22Se4V4,2.1271,15,8.335286,8.335286,9.998368,70.08886,70.08886,39.97536
7932,Ba3O8P2,5.1449,166,7.842304,7.842304,7.842304,42.52725,42.52725,42.52725
7933,Cr1Hg1Ta2,0.064,216,4.600333,4.600333,4.600333,60.0,60.0,60.0
7934,Mn2Ni2O6,1.2993999999999999,148,5.426324,5.426324,5.426324,54.94746,54.94746,54.94746
7935,Ba4Cu8Se8,0.8223,62,4.241474,9.663924,10.87073,90.0,90.0,90.0
7936,In1Na2P1,0.0453,225,5.04535,5.04535,5.04535,60.0,60.0,60.0
7937,Hf4La4O14,4.4659,227,7.681819,7.681819,7.681819,60.0,60.0,60.0
7938,Ag8Ho8S16,1.3534,4,7.690974,7.691568,12.04147,90.00021,90.02447,89.99974
7939,F3Ru1Sr1,0.2452,221,4.718543,4.718543,4.718543,90.0,90.0,90.0
7940,B8O14Sr2,7.1064,31,4.279977,4.473393,10.84885,90.0,90.0,90.0
7941,Ba6Cr2O10,1.4744000000000002,140,7.912522,7.912522,7.912522,124.2239,124.2239,82.82754
7942,Ce8O64S16,1.4556,61,9.160039,9.543322,13.71275,90.0,90.0,90.0
7943,In2K6P4,0.7923,72,8.951471,8.951471,8.951471,134.8844,129.0533,70.3836
7944,C4F6Hg1,3.6081,2,7.25552,5.231269,6.072345,72.88706,65.30833,64.66364
7945,Ca1O3Ti1,2.3582,221,3.922433,3.922433,3.922587,90.0,90.0,90.09661
7946,Cs4I10Li6,3.8406000000000002,12,4.770938,16.92308,11.13296,64.88103,90.0,90.0
7947,C4Na4O8,3.3301,14,5.31795,3.518483,10.52988,87.04942,90.0,90.0
7948,Fe1La2Pb1,0.0374,216,5.171476,5.171476,5.171476,60.0,60.0,60.0
7949,F32K8Re4,2.3363,62,6.013921,8.842504,12.81406,90.0,90.0,90.0
7950,Cd8N16O48,3.4511,29,7.751748,7.753286,15.90664,90.0,90.0,90.0
7951,Cr2Eu2O8,0.255,141,6.272826,6.272826,6.272826,105.7853,105.7853,117.125
7952,P4Si2Zn2,1.3779,122,6.492588,6.492588,6.492588,130.7862,130.7862,72.15294
7953,B8Ba12N16,2.5149,19,4.300934,11.16739,14.92289,90.0,90.0,89.99951
7954,Ga1N1Rb2,0.0988,225,5.394413,5.394413,5.394413,60.0,60.0,60.0
7955,Cl18Rb2W6,0.7463000000000001,147,9.643573,9.643533,8.825912,90.00149,89.99969,119.9991
7956,B4Ca2H4,0.0427,36,4.657693,4.657693,7.760916,90.0,90.0,139.7306
7957,Gd2O8V2,2.9279,141,6.078191,6.078191,6.078191,106.1698,106.1698,116.2975
7958,As4Cd2Ge2,0.0342,122,7.158378,7.158378,7.158378,129.8688,129.8688,73.61657
7959,Ba2Mo2O8,3.9462,88,7.63311,7.63311,7.63311,136.1928,136.1928,63.68243
7960,Bi1Ga1O3,1.296,221,3.886263,3.886263,3.886263,90.0,90.0,90.0
7961,As8Cd12O32,1.7084000000000001,14,12.28494,6.72046,9.465393,81.77264,90.0,90.0
7962,Hf1O3Sr1,3.7311,221,4.140778,4.140778,4.140778,90.0,90.0,90.0
7963,Ca8O16Si4,4.256,14,6.071859,5.60647,12.12691,84.67535,90.0,90.0
7964,O16Sr2Te6,2.1764,84,6.967841,6.967841,6.858054,90.0,90.0,90.0
7965,Al3As3O12,3.8685,152,5.130079,5.130043,11.44064,90.0002,90.00031,119.9999
7966,Bi4Ga8O18,2.9089,55,5.981508,8.009915,8.413041,90.0,90.0,90.0
7967,O8Sr2W2,4.4302,88,7.227824,7.227824,7.227824,135.2417,135.2417,65.15489
7968,Fe3O12P3,2.5238,152,5.195478,5.195478,11.54642,90.0,90.0,120.0
7969,O14S2Te4,3.2878,31,4.776061,7.079325,9.071877,90.0,90.0,90.0
7970,Cu4Rb4Se16,1.0789,19,5.572303,9.028874,13.73558,90.0,90.0,90.0
7971,C24O24V4,0.5156000000000001,62,6.381005,11.91066,12.57763,90.0,90.0,90.0
7972,F18Na2Th4,6.6997,121,7.857164,7.857164,7.857164,109.0531,109.0531,110.3107
7973,P2Sr1Zn2,0.8868,164,4.081539,4.081577,7.092336,90.00007,90.00034,120.0009
7974,Mn6Na4O14,1.4055,2,7.700699,7.733145,6.720379,56.75448,73.09606,60.05603
7975,Au2Ge8K6,0.8206,59,6.211506,6.687142,12.01177,90.0,90.0,90.0
7976,Na2O8S2,3.5316,2,4.878552,5.7162489999999995,6.200617,101.5963,103.071,97.59527
7977,Bi4Mn4O12,0.2702,15,5.633935,5.633935,10.01155,72.22166,72.22166,60.9188
7978,Hf1Si1V2,0.131,216,4.406881,4.406881,4.406881,60.0,60.0,60.0
7979,F3Na1V1,0.421,221,4.157601,4.157601,4.157601,90.0,90.0,90.0
7980,Ca2F8H4,7.5887,70,7.447287,6.114748,5.818524,77.1848,53.18916,49.62604
7981,Al2La2O6,3.5797,167,5.415011,5.415011,5.415011,60.12756,60.12756,60.12756
7982,Ca4Nb4O14,1.7737,227,7.449242,7.449242,7.449242,60.0,60.0,60.0
7983,Na12Nb4O16,4.1614,12,8.640182,8.640182,5.803783,77.4707,77.4707,98.8932
7984,Cr1K3O8,1.8178,121,6.20336,6.20336,6.20336,113.2007,113.2007,102.245
7985,Ba1F3Ga1,3.1805,221,5.088933,5.088933,5.088933,90.0,90.0,90.0
7986,Cs1F3Pb1,2.9204,221,4.90102,4.90102,4.90102,90.0,90.0,90.0
7987,F18Na6Si3,7.0035,150,9.0015,9.007527,5.119967,89.99831,89.95631,120.0204
7988,Au4K4Se20,1.0059,72,11.13044,11.13044,11.13044,131.0272,118.2629,82.53421
7989,Al2La2O6,3.6897,15,5.433263,5.418078,5.430046,59.9269,60.01958,59.92578
7990,K2Na2O2,2.1639,129,4.042204,4.042204,6.288575,90.0,90.0,90.0
7991,F36Rb4Th8,6.7212,62,7.486768,9.245239,12.34158,90.0,90.0,90.0
7992,Al8Ba12N16,1.5689000000000002,52,6.26882,10.31158,10.18837,90.0,90.0,90.0
7993,Ag1Li1Te1,1.1316,216,4.714241,4.714241,4.714241,60.0,60.0,60.0
7994,Na2Nb2S4,0.64,194,3.429023,3.429023,14.28438,90.0,90.0,119.9992
7995,Li4O5U1,3.1196,87,5.30718,5.30718,5.30718,100.3588,100.3588,129.8199
7996,Ca1F6Ti1,5.0763,225,5.917097,5.917097,5.917097,60.03126,60.03126,60.03126
7997,O2Pr2S1,2.5775,164,4.012827,4.012827,6.888935,89.99638,90.00362,120.0014
7998,Br12Cr4In4,1.5647,14,15.19054,4.224386,9.486502,85.25821,90.0,90.0
7999,Fe2Ga1Ta1,0.053200000000000004,225,4.184684,4.184684,4.184684,60.0,60.0,60.0
8000,Ni2Ta1Y1,0.0091,216,4.473249,4.473249,4.473249,60.0,60.0,60.0
8001,Ce1Rb1S2,2.3962,166,8.087871,8.087871,8.087871,30.73999,30.73999,30.73999
8002,As6Br2Cd4,0.7943,15,6.388331,6.388331,8.163126,82.39328,82.39328,97.36965000000001