,full_formula,band_gap,spacegroup.number,structure.lattice.a,structure.lattice.b,structure.lattice.c,structure.lattice.alpha,structure.lattice.beta,structure.lattice.gamma
12712,Al1Ge1Li1,0.0458,216,4.245579,4.245579,4.245579,60.0,60.0,60.0
12713,K1N1O2,2.5045,8,4.2902000000000005,4.2902000000000005,6.37333,54.24023,54.24023,85.43502
12714,Cl18Cs6Y4,4.8832,167,9.952744,9.952744,9.952744,84.32887,84.32887,84.32887
12715,Cl4K4O16,5.5244,62,5.915831,7.413326,8.892320999999999,90.0,90.0,90.0
12716,F3Li1Pb1,1.8611,221,4.800717,4.800717,4.800717,90.0,90.0,90.0
12717,Cs2I6V2,2.2257,194,8.308207,8.308207,7.056066,90.0,90.0,120.0018
12718,Ba8Mn8O24,0.727,194,5.7743649999999995,5.7743649999999995,19.28736,90.0,90.0,120.0007
12719,Cd1Ga2S4,2.2096,82,6.518012,6.518012,6.518012,128.9474,128.9474,75.09524
12720,Cu3S4Ta1,2.1704,215,5.580993,5.580993,5.580993,90.0,90.0,90.0
12721,Ir1Tl1W1,0.2574,216,4.381652,4.381652,4.381652,60.0,60.0,60.0
12722,Cl56Mo24Pb4,2.8981,201,13.40148,13.40148,13.40148,90.0,90.0,90.0
12723,F28Fe6Na10,2.8814,136,7.73784,7.73784,10.30674,90.0,90.0,90.0
12724,S8Si2Sr4,2.9181,11,6.69304,6.663115,8.28252,72.03342,90.0,90.0
12725,Ca8Fe8O20,0.6174000000000001,62,5.540825,5.657885,14.88793,90.0,90.0,90.0
12726,Ca1P2Zn2,0.9094000000000001,164,4.016627,4.016627,6.786386,89.99917,90.00083,119.9996
12727,Mg6Mn1O8,2.2764,225,5.992913,5.992913,5.992913,60.0,60.0,60.0
12728,Ag28P4Se24,0.6602,198,10.98445,10.98445,10.98445,90.0,90.0,90.0
12729,O8Si2Zr2,4.4598,141,5.622603,5.622603,5.622603,106.7502,106.7502,115.062
12730,Ga1Re1Ti2,0.0529,216,4.428214,4.428214,4.428214,60.0,60.0,60.0
12731,Na2O6Ta2,2.5245,127,5.564427,5.564427,4.004603,90.0,90.0,90.0
12732,Cl6Pt1S2,2.158,2,4.8125160000000005,6.978503,8.3797,104.3887,97.34443,93.13025
12733,Br12Na6Sc2,3.789,163,7.383841,7.383841,13.24152,90.00048,90.00048,120.0002
12734,Al8O20Si4,5.438,2,7.204729,7.934817,5.636075,89.89783,101.1367,106.0126
12735,H2Mg2O3,3.565,164,3.093657,3.093657,7.546711,89.99775,90.00225,120.0001
12736,C8K4N12,3.1604,14,16.49752,4.339487,5.9919270000000004,82.34165,90.0,90.0
12737,Bi1Ga1Rb2,0.32830000000000004,225,6.118782,6.118782,6.118782,60.0,60.0,60.0
12738,Ni4O8Si2,2.9467,227,5.739777,5.739777,5.739777,60.0,60.0,60.0
12739,Ba8Mn4S12,1.8599999999999999,62,4.371353,8.953751,17.30879,90.0,90.0,90.0
12740,Fe2O6Ti2,1.9805000000000001,148,5.579119,5.579119,5.579119,55.68473,55.68473,55.68473
12741,La4Mn4O12,1.1347,11,6.877987,5.332973,7.395087,90.01096,89.98373,79.89429
12742,Cd1K2N12,2.8502,12,7.921489,7.921489,9.725755,89.29439,89.29439,28.01796
12743,Eu1O3Ti1,0.7196,221,3.966265,3.966265,3.966265,90.0,90.0,90.0
12744,F3Pd1Tl1,1.0033,221,4.41577,4.41577,4.41577,90.0,90.0,90.0
12745,B2O6V2,1.4328,167,5.631774,5.631774,5.631774,49.10338,49.10338,49.10338
12746,Na1O3Ta1,2.5,221,3.996746,3.996746,3.995879,90.0,90.0,90.0761
12747,K2Pt1Se2,1.2836,71,6.463206,6.463206,6.463206,145.8897,109.2388,80.94011
12748,F3Rb1V1,2.1853,221,4.269511,4.269511,4.269511,90.0,90.0,90.0
12749,I2N2Zr2,1.2338,59,3.7726569999999997,4.160303,9.979773,90.0,90.0,90.0
12750,F13Na5Zr2,5.5601,12,6.631959,6.631959,9.204458,87.07858,87.07858,51.36501
12751,Fe2In2O6,0.9623,194,3.384971,3.385032,12.32609,90.0,90.0,119.9994
12752,Ag1Sb1Sr1,0.19590000000000002,216,5.010414,5.010414,5.010414,60.0,60.0,60.0
12753,Ge4N8Zn4,2.0839,33,5.18767,5.472818,6.419874,90.0,90.0,90.0
12754,O2Tb2Te1,1.1749,139,6.881729,6.881729,6.881729,146.6331,146.6331,47.90734
12755,Cr4O8Zn2,2.6349,141,5.954141,5.954141,5.943422,60.05953,60.05953,59.88093
12756,Cd8O24Se8,3.4888,14,13.1329,5.83076,8.799637,78.89838,90.0,90.0
12757,Al4F16K4,6.8938,11,7.35312,6.552824,7.471454,73.07258,90.0,90.0
12758,I4K12O20,1.2614,130,6.318045,6.318045,16.83373,90.0,90.0,90.0
12759,Na8Nb8O24,2.3719,57,5.552883,5.613806,15.69031,90.0,90.0,90.0
12760,Rb4S8Zn6,2.9927,72,9.239878,9.239878,9.239878,143.8092,105.9997,85.25689
12761,Al2Br14Se2,2.1722,7,6.792541,7.065732,15.23216,75.40382,90.0,90.0
12762,Mn4Mo4O16,2.6162,12,7.213888,7.213888,7.271436,78.17536,78.17536,84.53084
12763,Ba1O3Ti1,2.1281,221,4.060192,4.064011,4.064011,90.0,90.0,90.0
12764,F14K6Si2,5.9154,127,7.845025,7.845025,5.625179,90.0,90.0,90.0
12765,Cu2In2Te4,0.2444,122,7.723914,7.723914,7.723914,131.9051,131.9051,70.37902
12766,Mn2O8W2,2.227,13,5.85727,4.895149,5.071893,88.72761,90.0,90.0
12767,Ba2Cl2F2,5.4505,129,4.456943,4.456943,7.340278,90.0,90.0,90.0
12768,Ge4N6Na2,2.2613,36,5.774866,5.774866,5.196339,90.0,90.0,118.9643
12769,Bi1Ga1O3,1.2957,221,3.8861879999999998,3.8861879999999998,3.8861879999999998,90.0,90.0,90.0
12770,O8P2Ti2,3.0712,63,4.814553,4.814553,6.684665,90.0,90.0,112.8661
12771,Na2P2Zn2,1.201,129,4.034028,4.034028,6.867325,90.0,90.0,90.0
12772,Cl24N12P12,4.1097,62,6.640185,13.80601,14.86221,90.0,90.0,90.0
12773,O8Rb2Re2,4.1997,88,8.158968,8.158968,8.158968,137.3116,137.3116,61.95904
12774,O24Si6Zn12,3.4469,148,8.584248,8.584248,8.584248,107.8868,107.8868,107.8868
12775,C32Ni8O32,3.9903,205,10.94986,10.94986,10.94986,90.0,90.0,90.0
12776,Cs4O6Te2,3.5443,150,6.937559,6.938238,8.108367,90.00872,90.0,119.9968
12777,Ga3O12P3,4.5164,152,4.955864,4.955953,11.19742,90.00568,89.99418,120.0158
12778,B2Ba1F8,7.9858,12,6.898075,6.898075,4.892153,69.50512,69.50512,43.65577
12779,Cr4O16Pb4,1.8163,62,5.8977900000000005,7.781029,8.221922,90.0,90.0,90.0
12780,F24Sb4Xe2,2.7169,4,9.757136,7.468818,8.455721,74.49586,90.0,90.0
12781,H4O8S2,6.1615,15,4.772358,4.772358,8.955361,72.85553,72.85553,63.51394
12782,Fe3O12P3,2.3808,181,5.360348,5.360348,11.932970000000001,90.0,90.0,120.0
12783,Bi4O14Pt4,1.0682,227,7.44572,7.44572,7.44572,60.0,60.0,60.0
12784,Ag12O16Sb4,0.2417,91,7.127406,7.127406,9.073625,90.0,90.0,90.0
12785,Ga10H2O16,2.2874,186,5.881303,5.8813,9.14089,90.00008,89.99997,120.0008
12786,Bi4Mn4O12,0.2805,15,5.635143,5.635143,10.01992,72.12386,72.12386,60.87633
12787,B4F16K4,7.8858,62,5.596706,7.181436,8.832599,90.0,90.0,90.0
12788,C1K1N1,5.0546,8,4.000958,4.000958,3.963873,87.9304,87.9304,85.79364
12789,La6O14Ta2,3.6374,63,6.860705,6.860705,7.8771249999999995,90.0,90.0,111.3372
12790,C1O4Rb4,1.8011,121,6.70214,6.70214,6.70214,127.5979,127.5979,77.27733
12791,In1La2Rh1,0.1652,216,5.132545,5.132545,5.132545,60.0,60.0,60.0
12792,Ag4C2O6,0.9221,11,9.750224,3.363298,4.907365,87.10317,90.0,90.0
12793,B1Ir1La2,0.1723,216,4.810444,4.810444,4.810444,60.0,60.0,60.0
12794,B4Li12S12,3.0502,62,6.215726,8.185612,10.13888,90.0,90.0,90.0
12795,Mn2O8S2,3.6368,63,4.881676,4.881676,6.921047,90.0,90.0,113.7865
12796,Ce8S24Si6,2.0886,161,11.51607,11.51607,11.51607,114.7307,114.7307,114.7307
12797,Al4I16Na4,3.4221,62,8.338094,8.355406,15.21545,90.0,90.0,90.0
12798,Cu4Nb4O12,1.4962,12,6.456484,6.456484,6.847992,89.99285,89.99285,83.87216
12799,B1Fe2Ta1,0.0371,225,3.976882,3.976882,3.976882,60.0,60.0,60.0
12800,O26P8Y4,5.6513,20,9.491831,9.491831,8.646071,90.0,90.0,135.9514
12801,C4H32N24,3.6097,14,10.45957,6.439404,7.561587,70.4202,90.0,90.0
12802,La4O36Ta12,2.9675000000000002,62,6.675115,7.793753,12.70714,90.0,90.0,90.0
12803,Gd1In1O3,1.5258,221,4.117162,4.117162,4.117162,90.0,90.0,90.0
12804,Na2S4Sb2,0.4259,12,6.994027,6.994027,5.911903,66.68693,66.68693,47.10353
12805,O2S1Tb2,2.9767,164,3.837872,3.8376349999999997,6.65263,90.00226,90.0,120.002
12806,As2Be1K4,0.8808,166,9.30161,9.30161,9.30161,35.84458,35.84458,35.84458
12807,As12Os4Th1,0.08270000000000001,204,7.483272,7.483272,7.483272,109.4712,109.4712,109.4712
12808,B12H12K2,5.5216,202,7.622767,7.622767,7.622767,60.0,60.0,60.0
12809,Rh4S4Sb4,0.8867,198,6.096553,6.096553,6.096553,90.0,90.0,90.0
12810,B4H16Na4,6.539,215,6.045613,6.045613,6.045613,90.0,90.0,90.0
12811,As4Si2Zn2,1.1218,122,6.801658,6.801658,6.801658,130.8134,130.8134,72.10971
12812,K4O8W2,4.4961,12,7.047466,7.047466,7.65177,67.08911,67.08911,52.59381
12813,B24H24Sr2,5.9467,159,7.097673,7.097564,11.53696,90.00009,89.99982,120.0005
12814,Ga3O12P3,4.5232,152,4.989025,4.989025,11.21538,90.0,90.0,120.0
12815,Ag2Ba2P2,0.4031,194,4.571627,4.57156,8.914781,90.0,90.0,120.0005
12816,Au2Cl6Cs2,0.9164,139,7.790903,7.790903,7.790903,121.5466,121.5466,87.34145
12817,Cl18In4Ta6,1.2425,12,9.720745,9.720745,9.864595,75.14395,75.14395,111.2792
12818,Ge4N4O2,2.519,36,5.532086,5.532086,5.167482,90.0,90.0,116.7902
12819,Cs2I6Mn2,2.5501,194,8.37165,8.371432,7.10524,90.0,90.0,120.0009
12820,Cd1Ga2S4,2.201,82,6.516725,6.516725,6.516725,129.054,129.054,74.92365
12821,Ce3O16Zr5,2.385,21,5.378016,7.515869,7.516042,90.8082,90.0,90.0
12822,Li2O4Sc2,4.3532,141,5.615954,5.615954,5.615954,135.3912,135.3912,64.92301
12823,Al2La2O6,3.5975,167,5.415378,5.415378,5.415378,60.13684,60.13684,60.13684
12824,Ag2In2S4,0.9218000000000001,122,7.108675,7.108675,7.108675,130.2735,130.2735,72.96986
12825,Ba12Ga24S48,2.958,205,12.82935,12.82935,12.82935,90.0,90.0,90.0
12826,F6Mg1Rh1,1.2139,148,5.478031,5.478031,5.478031,56.59831,56.59831,56.59831
12827,Ag1Na1Se1,0.1932,216,4.6120149999999995,4.6120149999999995,4.6120149999999995,60.0,60.0,60.0
12828,I12Rb4Te2,1.4976,128,8.318698,8.318698,12.16289,90.0,90.0,90.0
12829,Sc1Se2Tl1,0.7382000000000001,166,8.079163,8.079163,8.079163,28.81615,28.81615,28.81615
12830,Al8O36Y16,4.3194,14,10.56056,7.436729,11.25645,71.49545,90.0,90.0
12831,B2H8Na2,6.3224,114,4.333541,4.333541,5.91238,90.0,90.0,90.0
12832,Cu2Ga2S4,1.1358,122,6.509654,6.509654,6.509654,131.1772,131.1772,71.53172
12833,I10Ir1Y6,0.0671,2,11.54865,9.684343,7.74702,75.4325,71.73643,54.02834
12834,Cl8H24N8,5.4634,205,7.920351,7.920351,7.920351,90.0,90.0,90.0
12835,Al20O48Y12,4.4969,230,10.50017,10.50017,10.50017,109.4712,109.4712,109.4712
12836,O12W1Y6,3.1151,148,6.503436,6.503436,6.503436,98.67711,98.67711,98.67711
12837,Ca4O12Si4,3.5282,139,6.249903,6.249903,6.249903,109.386,109.386,109.6419
12838,Cu8Fe4S8,0.1767,216,7.813826,7.813826,7.813826,60.0,60.0,60.0
12839,Na12O8Zn2,1.7725,186,7.5756820000000005,7.575627,5.8529,90.0,90.0,120.0002
12840,Ba1O3Ti1,2.1345,99,4.066348,4.060152,4.060152,90.0,90.0,90.0
12841,C4O8Tl4,2.8587,14,6.008725,6.796042,6.93339,80.64682,90.0,90.0
12842,Cr4O8Zn2,2.6338,227,5.95168,5.95168,5.95168,60.0,60.0,60.0
12843,Bi8Cu4O16,0.8327,130,8.524546,8.524546,6.01718,90.0,90.0,90.0
12844,Al4O8Zn2,4.4889,227,5.731753,5.731753,5.731753,60.0,60.0,60.0
12845,Ni1O8Re2,3.7408,147,5.747349,5.745751,6.484118,89.95777,90.04665,119.9374
12846,Li4O6Zr2,3.7375,15,5.325637,5.325637,5.469337,78.78482,78.78482,118.3252
12847,Nb2Nd6O14,3.0579,63,6.704174,6.704174,7.746498,90.0,90.0,111.1738
12848,P4S12Sn4,0.2509,2,10.38777,7.850908,9.378291,67.15874,97.16116,100.9754
12849,Ba2Cl2F2,5.4503,129,4.457069,4.457069,7.334337,90.0,90.0,90.0
12850,Br6Cu4Rb2,2.1692,63,8.17646,8.17646,5.415802,90.0,90.0,103.6217
12851,Nd1Rb1S2,2.2706,166,8.061359,8.061359,8.061359,30.42824,30.42824,30.42824
12852,B1F3Hg1,0.38570000000000004,221,4.545323,4.545323,4.545323,90.0,90.0,90.0
12853,C1Li4O4,4.1142,8,4.532432,4.532432,4.682769,78.97763,78.97763,95.19338
12854,Al2Mg1Se4,1.0605,166,13.75984,13.75984,13.75984,16.38506,16.38506,16.38506
12855,Al8O20Si4,4.8381,58,5.611027,7.876133,7.972391,90.0,90.0,90.0
12856,As12Rb20Si4,0.3824,62,5.733498,14.40828,15.81421,90.0,90.0,90.0
12857,Cu4S8Sb4,0.9946,62,3.835722,6.121079,14.49119,90.0,90.0,90.0
12858,O26Te10Y4,2.9991000000000003,2,7.05248,8.813464,10.827960000000001,89.55336,87.41926,74.99903
12859,B8Cu2O14,1.5379,63,6.350901,6.350901,5.161949,90.0,90.0,118.0276
12860,Ba3P2S8,1.9814,12,6.734313,6.734313,8.794086,89.87323,89.87323,59.88123
12861,Fe1Si1Y2,0.3312,216,4.716141,4.716141,4.716141,60.0,60.0,60.0
12862,Al8O20Si4,5.4388,2,7.204274,7.9339759999999995,5.635405,89.91011,101.1378,105.9992
12863,O16Rb4V6,1.7648000000000001,100,9.054808,9.054808,5.776516,90.0,90.0,90.0
12864,Ca1Cd2P2,0.9252,164,4.304345,4.304344,7.047169,89.9978,90.00221,119.9968
12865,C8Cs8O16,4.1434,14,11.19789,6.732214,8.747306,83.12397,90.0,90.0
12866,O48S12Sb8,4.0152,14,4.894177,13.36412,14.71836,79.38583,90.0,90.0
12867,Sc8Sr4Te16,0.7125,62,4.296475,13.36095,15.59148,90.0,90.0,90.0
12868,F18K2Te4,4.5111,2,5.009092,9.603527,9.521444,110.0016,95.58309,96.3231
12869,H4I4O12,3.2248,19,5.775544,5.873782,8.162168,90.0,90.0,90.0
12870,Cu4Na4O4,1.5632000000000001,139,6.732884,6.732884,6.732884,97.06524,97.06524,138.9382
12871,F6Li1Os1,2.3569,148,5.534226,5.534226,5.534226,56.36823,56.36823,56.36823
12872,I10Ru1Y6,0.197,2,11.55857,9.652172,7.751813,75.52606,72.01635,54.35257
12873,Al16Ca24N32,2.1946,19,5.856133,10.75028,15.91681,90.0,89.99963,90.0
12874,Br18Rb6V4,1.1548,194,7.610028,7.609758,19.20213,90.0,90.0,120.0012
12875,Bi2Br2O2,2.3094,129,3.951035,3.951035,9.060093,90.0,90.0,90.0
12876,Ga8Se16Tl8,1.2583,15,7.747208,7.747208,15.8575,82.90549,82.90549,90.01112
12877,O10Se2U2,3.2218,11,9.554895,4.347423,5.707421,84.97875,90.0,90.0
12878,Cs6F14Si2,5.6258,127,8.453106,8.453106,6.27097,90.0,90.0,90.0
12879,I2O8Rb2,2.4215,88,7.939522,7.939522,7.939522,134.9471,134.9471,65.61243
12880,Nb1Pt2Sc1,0.2691,216,4.56156,4.56156,4.56156,60.0,60.0,60.0
12881,Na4O6Zn4,1.8151000000000002,14,5.929529,5.729547,5.877812,62.4245,90.0,90.0
12882,Li2O16Ta6,3.4819,15,7.553863,7.553863,5.141537,89.29458,89.29458,101.7748
12883,F2Gd2O2,4.5806000000000004,166,6.866343,6.866343,6.866343,32.99978,32.99978,32.99978
12884,Ga1Mn1Zr2,0.15660000000000002,216,4.592841,4.592841,4.592841,60.0,60.0,60.0
12885,Mg2O6Ti2,3.8298,148,5.552225,5.552225,5.552225,55.15918,55.15918,55.15918
12886,Bi4In4O12,2.9067,33,5.700694,6.013462,8.461828,90.0,90.0,90.0
12887,K4Mo6O20,3.2667,15,8.301674,8.301674,9.037731,82.3099,82.3099,58.75772
12888,Ca4O12Si4,3.5924,139,6.247339,6.247339,6.247339,109.3293,109.3293,109.7554
12889,Al2I14Te2,1.8679999999999999,7,7.490735,7.743597,16.77771,75.62834,90.0,90.0
12890,F20Na2Sb6,4.9577,173,8.355752,8.355816,7.877563,90.0,90.0,120.0136
12891,Ga4O8Zn2,2.8548999999999998,227,5.909941,5.909941,5.909941,60.0,60.0,60.0
12892,La4O12V4,1.1528,62,5.598834,5.632129,8.093358,90.0,90.0,90.0
12893,H8O16Se4,3.3999,19,4.710644,8.439896,9.142194,90.0,90.0,90.0
12894,Na4O6S2,4.9314,147,5.522302,5.522269,6.186487,90.00066,90.00019,120.0046
12895,Cl12Mn4Tl4,2.914,62,7.168646,7.17346,10.21603,90.0,90.0,90.0
12896,Ce4Ge6O18,2.4641,2,7.801958,15.63542,5.6852409999999995,89.46026,92.78902,97.98191
12897,Br6Cs2Te1,2.1645,225,8.008779,8.008779,8.008779,60.0,60.0,60.0
12898,Cl12Nb4O4,2.9493,113,11.61887,11.61887,3.902545,90.0,90.0,90.0
12899,Mg2O6Si2,4.6596,63,4.796764,4.796764,6.726155,90.0,90.0,147.1352
12900,Al20O48Y12,4.4951,230,10.50066,10.50066,10.50066,109.4712,109.4712,109.4712
12901,Er2O8V2,2.7143,88,6.644454,6.644454,6.644454,135.3177,135.3177,65.03695
12902,Ag1F3Sr1,2.3327,221,4.712879,4.712879,4.712879,90.0,90.0,90.0
12903,F3K1V1,1.8087,221,4.219135,4.219135,4.219135,90.0,90.0,90.0
12904,Bi12O20Si1,2.4187,197,8.886712,8.886712,8.886712,109.4712,109.4712,109.4712
12905,Hg1Pt1Y2,0.4368,216,4.958261,4.958261,4.958261,60.0,60.0,60.0
12906,Nb6O18Pb3,2.7425,160,7.295192,7.295192,7.295192,94.42182,94.42182,94.42182
12907,Al8Mo12O48,3.6216,60,9.172314,9.260873,12.77864,90.0,90.0,90.0
12908,Cl2O2Y2,5.0983,129,3.931503,3.931503,6.743308,90.0,90.0,90.0
12909,Ba2Cl10Gd2,3.8808,15,10.14269,10.14269,6.937857,89.08863,89.08863,148.0518
12910,Al4Br16Ti2,2.9703,58,6.440629,9.610828,13.39228,90.0,90.00252,90.0
12911,Al2F8Na2,6.6538,63,7.81478,7.81478,5.345314,90.0,90.0,152.8363
12912,Br2H12Sr7,3.7101,174,10.04396,10.04397,4.01314,90.0,90.0,120.0
12913,Bi2Fe2O6,1.6687,161,5.7427600000000005,5.7427600000000005,5.7427600000000005,58.89329,58.89329,58.89329
12914,Cs1I3Sn1,0.4577,221,6.272162,6.272162,6.272162,90.0,90.0,90.0
12915,Li56N32P8,3.4757,218,9.402854,9.402854,9.402854,90.0,90.0,90.0
12916,Gd4O14Zr4,0.1453,227,7.460228,7.460228,7.460228,60.0,60.0,60.0
12917,O6Sn2Zn2,1.1816,161,5.664195,5.664195,5.664195,56.11975,56.11975,56.11975
12918,F3Mg1Y1,0.8268000000000001,221,4.527147,4.527147,4.527147,90.0,90.0,90.0
12919,Hf8O24Pb8,2.831,32,5.938067,8.287175,11.78752,90.0,90.0,90.0
12920,Cu4F16K8,2.396,142,13.5217,13.5217,13.5217,154.5139,154.5139,36.35305
12921,O8Pb2Sr4,1.4054,55,3.557334,6.229865,10.25653,90.0,90.0,90.0
12922,Ga1Nb1Pd1,0.0801,216,4.263041,4.263041,4.263041,60.0,60.0,60.0
12923,Nb4O14U2,0.9083,63,10.91463,10.91463,6.546564,90.0,90.0,159.7247
12924,Ba1F6Sn1,4.4495000000000005,148,5.078039,5.078039,5.078039,97.27166,97.27166,97.27166
12925,Hg1Pt1Y2,0.4368,216,4.958261,4.958261,4.958261,60.0,60.0,60.0
12926,I2Lu2O2,3.2485,129,3.855868,3.855868,9.366102,90.0,90.0,90.0
12927,C4N24O4,3.6024000000000003,62,5.635886,6.235788,14.19194,90.0,90.0,90.0
12928,In1Rh1Sc2,0.36050000000000004,216,4.729413,4.729413,4.729413,60.0,60.0,60.0
12929,C1K4O4,1.5670000000000002,5,5.903002,5.903002,5.9610009999999996,68.58431,68.58431,60.14184
12930,As1Co1Ti1,1.053,216,3.967469,3.967469,3.967469,60.0,60.0,60.0
12931,Gd4S12Sc4,1.9229,62,6.479702,7.107385,9.644154,90.0,90.0,90.0
12932,La4O10Pd4,1.8389000000000002,84,6.811669,6.811669,5.718065,90.0,90.0,90.0
12933,O2Rb1Yb1,0.5713,166,6.780167,6.780167,6.780167,29.4826,29.4826,29.4826
12934,K8O14P4,3.7506,194,6.000051,6.000051,15.10402,90.0,90.0,120.0031
12935,Cu4Dy4S8,1.8704,19,3.969776,6.267578,13.48194,90.0,90.0,90.0
12936,O16Se4Sr4,3.2614,14,9.003946,5.800427,9.819841,71.44937,90.0,90.0
12937,Bi8O20Se4,2.8753,39,8.790951,8.790951,11.65499,90.0,90.0,143.0167
12938,Bi1Fe1O3,1.5561,160,4.081875,4.081875,4.081875,88.35418,88.35418,88.35418
12939,Br6K2Te1,1.9618000000000002,225,7.732893,7.732893,7.732893,60.0,60.0,60.0
12940,Cd1Pd1Sc2,0.377,216,4.752084,4.752084,4.752084,60.0,60.0,60.0
12941,F12O4V4,3.6215,14,5.442222,5.945201,9.709682,90.63844,90.0,90.0
12942,Cs8I16Zn4,3.3531,62,8.386515,11.10829,14.87242,90.0,90.0,89.9937
12943,Eu4O14Sn4,0.11950000000000001,227,7.603896,7.603896,7.603896,60.0,60.0,60.0
12944,Ag2Ga2Se4,0.7014,122,7.05173,7.05173,7.05173,128.6022,128.6022,75.65158
12945,Be1K4P2,1.1447,166,9.018331,9.018331,9.018331,36.16686,36.16686,36.16686
12946,P4Rb4Se24,1.8395000000000001,29,7.046704,11.77025,12.31738,90.0,90.0,90.0
12947,Al1Cu1O2,2.0007,166,5.930758,5.930758,5.930758,28.1118,28.1118,28.1118
12948,As4Ca12N4,0.8564,62,6.741056,6.736361,9.565805,90.0,90.0,90.0
12949,Hg2K12Se8,1.4114,186,10.50507,10.50507,8.037186,90.0,90.0,119.9995
12950,K4Mn4O16,2.0568,62,5.825617,7.585161,9.306288,90.0,90.0,90.0
12951,Ge2Te12Ti2,0.4088,12,7.834057,7.834057,17.88589,75.68676,75.68676,29.27369
12952,Na4O8Se2,3.3176,70,8.223125,7.106899,6.018684,77.09031,57.39572,45.51396
12953,Co1Sb1Ti1,0.8166,216,4.161522,4.161522,4.161522,60.0,60.0,60.0
12954,Ca4Fe4O12,0.18030000000000002,14,9.69969,7.306251,5.698889,42.36254,90.0,90.0
12955,Mn4O10Sr4,0.1232,55,3.857441,5.627117,11.02671,90.0,90.0,90.0
12956,Co5O15Sr6,0.2174,155,6.936338,6.936338,6.936338,87.46464,87.46464,87.46464
12957,Fe4O16Sb8,1.1635,135,8.676349,8.676349,6.1420960000000004,90.0,90.0,90.0
12958,Ba8F32Zr4,5.9401,62,5.724903,10.01561,12.03437,90.0,90.0,90.0
12959,B4S12Tl4,1.6813,14,12.15711,5.829402,7.051429,66.57149,90.0,90.0
12960,O14Ru4Y4,0.5603,227,7.268069,7.268069,7.268069,60.0,60.0,60.0
12961,Al3O12P3,5.6441,152,5.014401,5.01459,11.13823,89.99879,90.0019,120.006
12962,Br12Eu8O2,2.6372999999999998,186,9.959123,9.959123,7.626866,90.0,90.0,119.9901
12963,F6I2Sn4,2.4494,20,7.431078,7.431078,9.44557,90.0,90.0,145.7425
12964,F5Mn1Rb2,1.3241,123,6.192532,6.192532,4.220779,90.0,90.0,90.0
12965,Al2Cu2Se4,1.2541,122,6.850371,6.850371,6.850371,131.0646,131.0646,71.7105
12966,Br4S4Sb4,1.3849,59,6.84765,5.910938,14.63816,90.0,90.0,90.0
12967,Co1Er7I12,0.4268,148,9.666013,9.666013,9.666013,106.787,106.787,106.787
12968,Al2La2O6,3.699,167,5.418756,5.418756,5.418756,60.19131,60.19131,60.19131
12969,K1N1O3,2.9775,160,4.3979610000000005,4.3979610000000005,4.3979610000000005,77.83007,77.83007,77.83007
12970,Ga3O12P3,4.5224,152,4.971722,4.971797,11.208,90.00506,89.99472,120.0176
12971,Fe4La4O12,1.0878,62,5.691558,5.628156,7.980501,90.0,90.0,90.0
12972,F3W1Zn1,0.7368,221,4.282082,4.282082,4.282082,90.0,90.0,90.0
12973,Ge8P16Sr12,0.9139,14,18.26169,7.315882,7.496369,67.98019,90.0,90.0
12974,C2H18N18,1.9948000000000001,2,9.504112,4.950162,9.477058,80.12118,115.3106,113.5632