,full_formula,DebyeTemp,spacegroup.number,structure.lattice.a,structure.lattice.b,structure.lattice.c,structure.lattice.alpha,structure.lattice.beta,structure.lattice.gamma
3666,Cd2Se8Y4,203.591,227,8.350348,8.350348,8.350348,60.0,60.0,60.0
3667,Dy4Ir4Si4,302.106,62,4.239826,6.869755,7.360243,90.0,90.0,90.0
3668,Bi1Er2O2,227.798,139,7.262063,7.262063,7.262063,149.2475,149.2475,44.04714
3669,Ba1Ge3Pd1,254.313,107,6.1847,6.1847,6.1847,136.262,136.262,63.57556
3670,Na3P3Sr3,340.082,189,7.687002,7.686975,4.495117,90.0,90.0,120.0001
3671,Er2Ge6Ni2,345.468,65,10.99529,10.99529,4.049407,90.0,90.0,158.6321
3672,C1Na4O4,322.27,215,4.726231,4.726231,4.726231,90.0,90.0,90.0
3673,Dy4Ge4Ir4,229.791,62,4.3784849999999995,6.88682,7.4704180000000004,90.0,90.0,90.0
3674,Au8In4K2,147.158,140,7.554443,7.554443,7.554443,108.533,108.533,111.3645
3675,Cu2Sn6Zr10,334.867,193,8.710366,8.710366,5.913818,90.0,90.0,120.002
3676,Ir2Si2Tb1,384.261,139,5.746296,5.746296,5.746296,138.6046,138.6046,59.97828
3677,Gd4Hf4O14,451.01,227,7.49133,7.49133,7.49133,60.0,60.0,60.0
3678,Ca3N1P1,534.655,221,4.725635,4.725635,4.725635,90.0,90.0,90.0
3679,Ba6Cr2N6,224.125,176,8.37429,8.373603,5.513496,90.0,90.0,120.0032
3680,Rh1Si3Th1,344.004,107,5.7307500000000005,5.7307500000000005,5.7307500000000005,135.6878,135.6878,64.46332
3681,Cl16Hg12O4,101.716,198,9.55577,9.55577,9.55577,90.0,90.0,90.0
3682,Al6Hf10N2,294.837,193,8.095403,8.095403,5.657802,90.0,90.0,120.0001
3683,Er4In2Pd4,222.503,127,7.686009,7.686009,3.647005,90.0,90.0,90.0
3684,Pt1Sn1Ti1,267.45,216,4.441512,4.441512,4.441512,60.0,60.0,60.0
3685,La2Rh2Si4,341.674,63,8.719136,8.719136,4.228199,90.0,90.0,151.0288
3686,As4Ni4Se4,343.493,198,5.864395,5.864395,5.864395,90.00009,90.00009,90.00009
3687,Cr1La1O3,583.36,221,3.940907,3.940907,3.940907,90.0,90.0,90.0
3688,Au1Ni4Tb1,322.535,216,4.926973,4.926973,4.926973,60.0,60.0,60.0
3689,Al1Mn1Ti2,319.982,216,4.400343,4.400343,4.400343,60.0,60.0,60.0
3690,As8Ba4Zn8,261.661,62,4.265405,10.06482,10.93857,90.0,90.0,90.0
3691,C1Nb1Ru3,523.022,221,4.050392,4.050392,4.050392,90.0,90.0,90.0
3692,Cs4I8Li4,112.181,36,10.68784,10.68784,13.8068,90.0,90.0,154.6392
3693,Al8Ni2Tb2,428.504,63,7.976255,7.976255,6.585357,90.0,90.0,150.4975
3694,Hf1Ru1Sb1,251.198,216,4.451872,4.451872,4.451872,60.0,60.0,60.0
3695,Bi1N2Th2,194.782,139,7.761825,7.761825,7.761825,148.4289,148.4289,45.2526
3696,P1Pt5Sn1,199.698,123,3.972753,3.972753,7.181172,90.0,90.0,90.0
3697,Li4O8Rh4,447.851,227,6.073294,6.073294,6.073294,60.0,60.0,60.0
3698,Cu1Mn3N1,396.096,221,4.091163,4.091163,4.091163,90.0,90.0,90.0
3699,Er3Pt3Sn3,240.354,189,7.5327649999999995,7.5327649999999995,3.968307,90.0,90.0,120.0
3700,O8Sb2V2,616.724,109,5.640564,5.640564,5.640564,108.2898,108.2898,111.8607
3701,Hg1O2Rb2,165.217,139,7.811701,7.811701,7.811701,148.4461,148.4461,45.22726
3702,Cd3Cu3Dy3,214.428,189,7.454406,7.454406,3.953273,90.0,90.0,120.0007
3703,Hf4Ir4Si4,370.704,62,3.9440049999999998,6.499518,7.376316,90.0,90.0,90.0
3704,C8U4W4,298.003,62,4.02962,5.551682,10.70054,89.99576,90.0,90.0
3705,La1Ni1O2,414.065,123,4.016838,4.016838,3.406094,90.0,90.0,90.0
3706,Ge2Rh2Y1,351.865,139,5.94496,5.94496,5.94496,139.3959,139.3959,58.77167
3707,Ce1Ga1O3,269.271,221,4.447914,4.447914,4.447914,90.0,90.0,90.0
3708,B6Ni20Sc3,471.455,225,7.506586,7.506586,7.506586,60.0,60.0,60.0
3709,Mg1P1Pt5,267.938,123,3.910942,3.910942,7.008178,90.0,90.0,90.0
3710,Ge2V2Zr2,390.625,139,7.774886,7.774886,7.774886,152.023,152.023,39.97976
3711,Hf1O3Pb1,395.759,221,4.155338,4.155338,4.155338,90.0,90.0,90.0
3712,Ga4Sn4Sr4,236.399,194,4.646557,4.646209,18.72996,90.0,90.0,120.0025
3713,Dy4Ga4Pt4,189.692,62,4.431491,6.895655,7.657029,90.0,90.0,90.0
3714,In3Pt3Sc3,237.954,189,7.58491,7.58491,3.591891,90.0,90.0,119.9985
3715,Bi2Ca2Cu2,227.376,194,4.609764,4.609618,8.169108,90.0,90.0,120.001
3716,Ag3Er3Si3,310.807,189,7.040754,7.040748,4.1614,90.0,90.0,120.0
3717,Ag3Dy3Si3,307.911,189,7.08779,7.08779,4.188539,90.0,90.0,120.0002
3718,B8Mo8Ru4,584.901,58,3.098872,7.544546,9.647186,90.0,90.0,90.0
3719,O2Tb2Te1,269.109,139,6.881729,6.881729,6.881729,146.6331,146.6331,47.90734
3720,Cr4O8Zn2,591.313,141,5.954141,5.954141,5.943422,60.05953,60.05953,59.88093
3721,Cu2Sb4Ti10,346.56,140,7.910047,7.910047,7.910047,96.38577,96.38577,141.0373
3722,Pt1Sb2Zr6,316.197,189,7.874407,7.874407,3.69894,90.0,90.0,120.0001
3723,Al8Ce2Ni2,464.485,63,8.048214,8.048214,6.561552,90.0,90.0,150.4275
3724,Ge4N6Na2,571.164,36,5.774866,5.774866,5.196339,90.0,90.0,118.9643
3725,Hg2Sn2Yb2,156.086,186,4.93562,4.93562,7.895466,90.0,90.0,120.0
3726,Al16Ru7Sc6,473.899,225,8.762706,8.762706,8.762706,60.0,60.0,60.0
3727,Fe1Ga12Y4,326.8,229,7.475553,7.475553,7.475553,109.4712,109.4712,109.4712
3728,Bi4O14Pt4,376.326,227,7.44572,7.44572,7.44572,60.0,60.0,60.0
3729,Au2Ho2Sn2,215.915,186,4.718815,4.718815,7.444268,90.0,90.0,119.9986
3730,As12Os4Th1,375.173,204,7.483272,7.483272,7.483272,109.4712,109.4712,109.4712
3731,Rh4S4Sb4,374.492,198,6.096553,6.096553,6.096553,90.0,90.0,90.0
3732,B4H16Na4,517.285,215,6.045613,6.045613,6.045613,90.0,90.0,90.0
3733,Ag2Ba2P2,254.416,194,4.571627,4.57156,8.914781,90.0,90.0,120.0005
3734,Ce2Pd21Si6,267.622,225,8.646427,8.646427,8.646427,60.0,60.0,60.0
3735,Co2Er2Si4,383.309,63,8.218195,8.218195,3.948044,90.0,90.0,151.9157
3736,I12Rb4Te2,80.2999,128,8.318698,8.318698,12.16289,90.0,90.0,90.0
3737,Mg3Ni20P6,440.048,225,7.776469,7.776469,7.776469,60.0,60.0,60.0
3738,As2Ba1Rh2,276.257,139,7.097084,7.097084,7.097084,146.6544,146.6544,47.87578
3739,Cl8H24N8,314.064,205,7.920351,7.920351,7.920351,90.0,90.0,90.0
3740,Ag2Ca1Ge2,238.261,139,6.396421,6.396421,6.396421,140.2421,140.2421,57.4859
3741,Ge3Pd3Sc3,340.438,189,6.832901,6.832901,3.96707,90.0,90.0,120.0003
3742,As4Ba4Pt4,180.076,198,6.796293,6.796293,6.796293,90.0,90.0,90.0
3743,Ba4Pd4Si4,224.099,198,6.728203,6.728203,6.728203,90.0,90.0,90.0
3744,Ba1Si2Zn2,358.169,139,6.007348,6.007348,6.007348,135.9537,135.9537,64.052
3745,Bi4In4O12,307.711,33,5.700694,6.013462,8.461828,90.0,90.0,90.0
3746,Al4C4Th1,590.691,87,6.11932,6.11932,6.11932,94.41565,94.41565,147.7811
3747,Ca4Pt4Si4,215.237,198,6.359375,6.359375,6.359375,90.0,90.0,90.0
3748,Bi3Dy3Rh3,210.217,189,7.655137,7.655137,3.965949,90.0,90.0,120.0005
3749,C1Er3Tl1,133.851,221,5.56029,5.56029,5.56029,90.0,90.0,90.0
3750,Co2Fe1Ga1,404.321,225,4.191163,4.191163,4.191163,60.0,60.0,60.0
3751,Dy2Ga4Ni2,285.737,63,5.410937,5.410937,6.631852,90.0,90.0,135.2641
3752,Al2F8Na2,535.801,63,7.81478,7.81478,5.345314,90.0,90.0,152.8363
3753,Br2H12Sr7,337.028,174,10.04396,10.04397,4.01314,90.0,90.0,120.0
3754,Cs1I3Sn1,117.887,221,6.272162,6.272162,6.272162,90.0,90.0,90.0
3755,Ca3N1Sb1,211.714,221,5.760434,5.760434,5.760434,90.0,90.0,90.0
3756,Au4Ca4Cd4,169.827,62,4.373167,7.447366,8.925809,90.0,90.0,90.0
3757,O8Pb2Sr4,335.351,55,3.557334,6.229865,10.25653,90.0,90.0,90.0
3758,La4O10Pd4,348.643,84,6.811669,6.811669,5.718065,90.0,90.0,90.0
3759,Cu2O4Sr2,389.983,63,8.325485,8.325485,3.972311,90.0,90.0,154.7762
3760,Br6K2Te1,120.564,225,7.732893,7.732893,7.732893,60.0,60.0,60.0
3761,As1Hg1Pd5,230.477,123,4.041188,4.041188,7.124696,90.0,90.0,90.0
3762,As4Ca12N4,438.864,62,6.741056,6.736361,9.565805,90.0,90.0,90.0
3763,Ca3Ge1N1,391.083,221,4.819849,4.819849,4.819849,90.0,90.0,90.0
3764,Ag5O6Pb2,173.279,162,6.073573,6.073573,6.554049,89.99902,89.99902,119.9977
3765,F5Mn1Rb2,209.534,123,6.192532,6.192532,4.220779,90.0,90.0,90.0
3766,Ag3Mg3Y3,189.697,189,7.734025,7.734025,4.151058,90.0,90.0,120.0066
3767,Cs2S4Tb2,234.167,194,4.124427,4.124448,16.10682,90.0,90.0,119.9998
3768,Bi1Dy1Ni1,248.56,216,4.567913,4.567913,4.567913,60.0,60.0,60.0
3769,Rh1Sb1U1,188.572,216,4.711813,4.711813,4.711813,60.0,60.0,60.0
3770,K1Mn1Te2,136.904,119,8.052318,8.052318,8.052318,148.5385,148.5385,45.09099
3771,La6Rh8Sn26,263.371,223,9.954809,9.954809,9.954809,90.0,90.0,90.0
3772,Co8Ge26Y6,388.161,223,8.749395,8.749395,8.749395,90.0,90.0,90.0
3773,Er2Ni1Sn6,227.684,65,11.61051,11.61051,4.467895,90.0,90.0,158.1639
3774,Cd1P1Pd5,272.532,123,3.949306,3.949306,7.029324,90.0,90.0,90.0
3775,Cl8Li4Zn2,307.004,227,7.323368,7.323368,7.323368,60.0,60.0,60.0
3776,Ca6Co8Sn26,208.353,223,9.72258,9.72258,9.72258,90.0,90.0,90.0
3777,Hf3Ir3Sn3,246.267,189,7.364635,7.364635,3.6925470000000002,90.0,90.0,119.9999
3778,In8Pd2Sr2,204.272,63,8.94996,8.94996,7.616078,90.0,90.0,150.2537
3779,Cd4Na4Sb4,175.909,62,4.783127,8.063113,8.618733,90.0,90.0,90.0
3780,Br2O8Y6,346.553,63,6.254055,6.254055,11.72287,90.0,90.0,141.6817
3781,C1Ru3Sc1,556.54,221,4.090435,4.090435,4.090435,90.0,90.0,90.0
3782,Ca1P2Rh2,442.172,139,5.61424,5.61424,5.61424,137.9391,137.9391,60.99624
3783,O12Sb4Zn2,541.612,136,4.718777,4.718777,9.346344,90.0,90.0,90.0
3784,Bi4Cs12O12,109.49,198,9.442325,9.442325,9.442325,90.0,90.0,90.0
3785,Rh4Sb4Tb4,238.689,62,4.569985,7.181739,7.840388,90.0,90.0,90.0
3786,B8Be4C8,1335.28,59,4.700167,5.432038,6.134613,90.0,90.0,90.0
3787,As4Sn2Zn2,261.461,122,7.309861,7.309861,7.309861,131.9965,131.9965,70.23463
3788,Mg1Pt1Sb1,209.299,216,4.4744720000000004,4.4744720000000004,4.4744720000000004,60.0,60.0,60.0
3789,As2O8Sc2,568.255,141,5.774123,5.774123,5.774123,106.8196,106.8196,114.9155
3790,P3Ru3Zr3,440.648,189,6.491581,6.491581,3.800417,90.0,90.0,120.0
3791,Hf8Ni2P2,242.033,124,6.38673,6.38673,5.256431,90.0,90.0,90.0
3792,Cl4La4Se4,254.526,62,4.386582,7.708499,9.254964,90.0,90.0,90.0
3793,Cu2Ge2Tb1,331.969,139,5.930526,5.930526,5.930526,139.9464,139.9464,57.93467
3794,B1Rh3Tb1,382.842,221,4.199268,4.199268,4.199268,90.0,90.0,90.0
3795,Li1N1Zn1,666.992,216,3.425254,3.425254,3.425254,60.0,60.0,60.0
3796,Cu2Dy2Si2,358.275,194,4.157401,4.157401,7.43773,90.0,90.0,119.9995
3797,Au1Mn1Sb1,163.792,216,4.617858,4.617858,4.617858,60.0,60.0,60.0
3798,Co2Ge1Zn1,177.644,225,4.296933,4.296933,4.296933,60.0,60.0,60.0
3799,Fe1O2Sr1,454.551,123,4.06346,4.06346,3.496953,90.0,90.0,90.0
3800,Li2Nb2S4,479.552,194,3.382107,3.382131,12.95037,90.0,90.0,119.9998
3801,F12Pb2Zr2,250.788,67,6.824374,6.824374,5.468157,90.0,90.0,111.5371
3802,Ag2Al2O4,412.704,194,2.91553,2.91553,12.41718,90.0,90.0,120.0
3803,Ca1F6Sn1,343.353,225,6.079912,6.079912,6.079912,60.0,60.0,60.0
3804,Cr2N2Nb2,660.646,129,3.032988,3.032988,7.453326,90.0,90.0,90.0
3805,In1Pt2Zr1,156.0,225,4.681924,4.681924,4.681924,60.0,60.0,60.0
3806,B28Mo12Y4,785.735,62,3.112959,11.06963,12.94347,90.0,90.0,90.0
3807,P1Pt1Tb1,249.172,187,4.129324,4.129324,3.884706,90.0,90.0,119.997
3808,Pt3Sn3U3,206.605,38,7.680947,7.680947,4.191541,90.0,90.0,119.9414
3809,Ga6Mn1Tb2,263.716,225,6.270287,6.270287,6.270287,60.0,60.0,60.0
3810,H12Mg4Na4,633.114,62,5.366293,5.445013,7.638341,90.0,90.0,90.0
3811,Cu6Dy6Sb8,279.755,220,8.306889,8.306889,8.306889,109.4712,109.4712,109.4712
3812,Ba2Cr2S4,277.847,59,4.352655,4.861454,9.596533,90.0,90.0,90.0
3813,F3Pd1Rb1,293.536,221,4.416514,4.416514,4.416514,90.0,90.0,90.0
3814,Pd1Sn3Sr1,152.582,107,6.729772,6.729772,6.729772,137.2495,137.2495,62.05436
3815,Mn1Rh2Sn1,324.032,225,4.494194,4.494194,4.494194,60.0,60.0,60.0
3816,Dy1Rh2Si2,417.538,139,5.734087,5.734087,5.734087,138.6947,138.6947,59.84073
3817,Ag4K4O4,203.349,139,7.641658,7.641658,7.641658,97.48213,97.48213,137.6945
3818,Ag4F12K4,241.999,62,6.203762,6.496429,8.438859,90.0,90.0,90.0
3819,Bi1Lu1Ni1,240.432,216,4.509875,4.509875,4.509875,60.0,60.0,60.0
3820,Ba2Bi2O6,340.817,225,6.250973,6.250973,6.250973,60.0,60.0,60.0
3821,Cd1O6Pt3,369.655,65,6.328047,6.328047,3.2095219999999998,90.0,90.0,109.3626
3822,In9K1Ni2,198.323,191,8.84444,8.84444,4.352434,90.0,90.0,119.989
3823,Ni4Sb4Tb2,209.96,129,4.426779,4.426779,9.841744,90.0,90.0,90.0
3824,La1Rh3Si2,426.297,191,5.653879,5.654057,3.636878,90.0,90.0,119.999
3825,Ir4Mn4Si4,350.595,62,3.936815,6.415968,7.088005,90.0,90.0,90.0
3826,Cu2In1Sc1,290.427,225,4.567391,4.567391,4.567391,60.0,60.0,60.0
3827,Ge6Ir7Mn4,322.998,229,7.025896,7.025896,7.025896,109.4712,109.4712,109.4712
3828,Na12S12Sb4,224.717,198,8.708794,8.708794,8.708794,90.0,90.0,90.0
3829,Cu1Dy2Ge6,322.994,38,10.87491,10.87491,4.095658,90.0,90.0,158.6557
3830,Er4Ge4Mg2,322.479,127,7.211931,7.211931,4.20979,90.0,90.0,90.0
3831,Cs2I6Te1,86.5009,225,8.558146,8.558146,8.558146,60.0,60.0,60.0
3832,Er4O14Sn4,464.382,227,7.451126,7.451126,7.451126,60.0,60.0,60.0
3833,Dy3Pt3Sn3,240.609,189,7.557756,7.557756,4.001401,90.0,90.0,119.9999
3834,Ge2Mn4O8,526.654,55,3.008864,5.338771,9.409178,90.0,90.0,90.0
3835,Cu2Ir4S8,282.855,227,7.018583,7.018583,7.018583,60.0,60.0,60.0
3836,Al1Mn1Rh2,426.254,225,4.304991,4.304991,4.304991,60.0,60.0,60.0
3837,Al3Dy3Ni3,264.307,189,6.999324,6.999275,3.812477,90.0,90.0,120.0002
3838,Ag2Si2Yb1,266.31,139,6.170794,6.170794,6.170794,139.5011,139.5011,58.611580000000004
3839,Al1Cu2Ti1,403.293,225,4.296035,4.296035,4.296035,60.0,60.0,60.0
3840,P2Sb2Ti4,420.179,194,3.699062,3.699062,12.75487,90.0,90.0,119.9998
3841,Ba6O18Ti6,512.805,194,5.820734,5.820719,14.20562,90.0,90.0,120.0001
3842,Al1Cu2Zr1,361.532,225,4.414853,4.414853,4.414853,60.0,60.0,60.0
3843,Bi1Ho1Pd1,206.186,216,4.730552,4.730552,4.730552,60.0,60.0,60.0
3844,In2Pd4Tb4,218.432,127,7.727022,7.727022,3.722171,90.0,90.0,90.0
3845,O14Pb4Sb4,473.869,227,7.674711,7.674711,7.674711,60.0,60.0,60.0
3846,Cd4Ho16Rh4,196.597,216,9.555332,9.555332,9.555332,60.0,60.0,60.0
3847,F3Pb1Rb1,199.074,221,4.866034,4.866034,4.866034,90.0,90.0,90.0
3848,Al16Ru7Zr6,397.321,225,8.714969,8.714969,8.714969,60.0,60.0,60.0
3849,As2Nb6Te6,287.78,176,10.5282,10.52834,3.58818,90.0,90.0,119.9989
3850,Al9Ba1Ni2,440.043,191,7.946975,7.944988,3.957129,90.0,90.0,120.0083
3851,Al8Er1Mn4,551.996,139,6.692427,6.692427,6.692427,97.6927,97.6927,137.0779
3852,Cr1Dy4Ga12,292.067,229,7.446577,7.446577,7.446577,109.4712,109.4712,109.4712
3853,H2Mg1Ni1,552.194,123,3.242213,3.242213,3.228899,90.0,90.0,90.0
3854,Co2Ga1Hf1,324.754,225,4.393563,4.393563,4.393563,60.0,60.0,60.0
3855,Ge2La1Rh2,335.098,139,6.118634,6.118634,6.118634,139.7442,139.7442,58.24183
3856,Cl6Pt1Rb2,141.707,225,7.23227,7.23227,7.23227,60.0,60.0,60.0
3857,Al2O8P2,570.024,186,5.331951,5.331951,8.715227,90.0,90.0,120.0001
3858,Al3Ir3Th3,228.807,189,7.345591,7.345549,4.192464,90.0,90.0,120.0002
3859,Rh8Sn26Sr6,219.156,223,10.01075,10.01075,10.01075,90.0,90.0,90.0
3860,As2Cu2K4,195.093,63,6.318879,6.318879,5.931064,90.0,90.0,105.9319
3861,Al16Pt7Zr6,409.116,225,8.759729,8.759729,8.759729,60.0,60.0,60.0
3862,Au4S4Ta20,275.37,216,8.973995,8.973995,8.973995,60.0,60.0,60.0
3863,F6K2Si1,231.095,225,5.828671,5.828671,5.828671,60.0,60.0,60.0
3864,K2Nb2Se4,311.508,194,3.632037,3.632044,16.37139,90.0,90.0,119.9999
3865,Cu2Sb2Sr2,267.897,194,4.565778,4.565778,8.81872,90.0,90.0,120.001
3866,Ba1O3Th1,308.469,221,4.75342,4.75342,4.75342,90.0,90.0,90.0
3867,Ca2O8Pd6,376.69,223,5.837988,5.837988,5.837988,90.0,90.0,90.0
3868,Er4O14Sn4,464.382,227,7.451126,7.451126,7.451126,60.0,60.0,60.0
3869,Ca3Ge1O1,458.995,221,4.736456,4.736456,4.736456,90.0,90.0,90.0
3870,Bi4Mg2O12,399.139,136,4.919569,4.919569,9.901896,90.0,90.0,90.0
3871,Hf4Pb4S12,181.347,62,3.775969,9.201992,14.17399,90.0,90.0,90.0
3872,As2Pt2Sr2,209.198,194,4.27971,4.279147,9.057161,90.0,90.0,120.0044
3873,Ru1Sb1V1,304.729,216,4.277952,4.277952,4.277952,60.0,60.0,60.0
3874,N2Sb1Th2,202.639,139,7.6564309999999995,7.6564309999999995,7.6564309999999995,148.1777,148.1777,45.62304
3875,Al4Cd2O8,545.086,227,5.988536,5.988536,5.988536,60.0,60.0,60.0
3876,Ce4Ge4Ir4,238.94,62,4.365605,7.018933,7.653947,90.0,90.0,90.0
3877,La1Os4P12,483.609,204,7.050744,7.050744,7.050744,109.4712,109.4712,109.4712
3878,Bi4O12Rb12,142.046,198,8.969905,8.969905,8.969905,90.0,90.0,90.0
3879,Ni2Ta2Te10,142.531,63,7.266134,7.266134,15.18731,90.0,90.0,150.4052
3880,Al1Mn1Pd2,268.645,225,4.4064309999999995,4.4064309999999995,4.4064309999999995,60.0,60.0,60.0
3881,Ba1Li1P1,282.427,187,4.441246,4.441246,4.529592,90.0,90.0,120.0024
3882,Cr4Hg2S8,294.75,227,7.382307,7.382307,7.382307,60.0,60.0,60.0
3883,Ge2Hf2V2,366.056,129,3.715852,3.715852,7.310633,90.0,90.0,90.0
3884,As3Ru3Zr3,393.136,189,6.636918,6.636918,3.921717,90.0,90.0,120.0003
3885,Ge8La4Li4,316.591,62,4.044558,7.888941,10.96018,90.0,90.0,90.0
3886,Cl2F12Pb7,176.517,174,10.42707,10.427,4.028911,90.0,90.0,120.0034
3887,Ag2In1La1,164.274,225,5.131742,5.131742,5.131742,60.0,60.0,60.0
3888,Fe1Ga12Tb4,297.069,229,7.491944,7.491944,7.491944,109.4712,109.4712,109.4712
3889,O8P2Pr2,411.927,141,5.995096,5.995096,5.995096,105.9561,105.9561,116.7564
3890,In1Li2Pd1,220.899,216,4.516902,4.516902,4.516902,60.0,60.0,60.0
3891,Ag4Ca4Sb4,233.658,62,4.623543,7.756145,8.601137,90.0,90.0,90.0
3892,Al2O4Rb2,440.282,227,5.73538,5.73538,5.73538,60.0,60.0,60.0
3893,Ba2N4Zr2,332.891,129,4.205384,4.205384,8.470008,90.0,90.0,90.0
3894,As2Pd2Sr2,235.248,194,4.311589,4.311342,8.959185,90.0,90.0,120.0019
3895,Au2La2Pb2,184.956,194,4.903977,4.903977,8.100528,90.0,90.0,119.9997
3896,N2Sr2Zn1,335.617,139,6.964328,6.964328,6.964328,147.7259,147.7259,46.29019
3897,Ge3Pd1Sr1,232.038,107,6.089625,6.089625,6.089625,136.5666,136.5666,63.10555
3898,Bi4Li4Sr4,212.372,62,4.944699,8.2185,8.665184,90.0,90.0,90.0
3899,Ni4Pd4Te4,252.526,62,3.7821059999999997,6.32849,8.417256,90.0,90.0,90.0
3900,Au2Sb2Yb2,160.47,186,4.729895,4.729895,7.95329,90.0,90.0,120.0007
3901,In1Mn1Ti2,176.556,216,4.534758,4.534758,4.534758,60.0,60.0,60.0
3902,Er4O14Ti4,554.34,227,7.192058,7.192058,7.192058,60.0,60.0,60.0
3903,Ca4Li4N4,558.352,62,3.67005,5.55533,8.504756,90.0,90.0,90.0
3904,Ba1Ir2P2,280.784,139,6.973422,6.973422,6.973422,146.9975,146.9975,47.36755
3905,Fe1Sb1V1,364.581,216,4.096448,4.096448,4.096448,60.0,60.0,60.0
3906,Al2Cd1Te4,183.446,82,7.427027,7.427027,7.427027,129.9162,129.9162,73.54075
3907,Br3Cs1Ge1,171.72,221,5.60233,5.60233,5.60233,90.0,90.0,90.0
3908,As2Au2Ba2,207.968,194,4.624168,4.624168,9.121903,90.0,90.0,119.9984
3909,Hf3Mo3P3,435.807,189,6.945132,6.945083,3.418527,90.0,90.0,120.0002
3910,B6Co2W6,559.308,63,4.526787,4.526787,10.79967,90.0,90.0,138.7794
3911,Ni2Sc1Sn1,346.081,225,4.459756,4.459756,4.459756,60.0,60.0,60.0
3912,C2Ga2Ti4,621.349,194,3.120295,3.120281,13.51908,90.0,90.0,120.0002
3913,Au2Rb2Te2,147.251,194,4.790574,4.790574,10.49807,90.0,90.0,119.996
3914,Fe4Si4Zr4,527.637,62,4.04734,6.522707,6.775949,90.0,90.0,90.0
3915,F4S4Y4,356.779,194,4.078118,4.078118,16.81935,90.0,90.0,120.0023
3916,Co4Dy4Sn4,267.187,62,4.644946,7.45788,7.819629,90.0,90.0,90.0
3917,Au2Ho1In1,149.253,225,4.912782,4.912782,4.912782,60.0,60.0,60.0
3918,Cd4O14Sb4,484.759,227,7.376652,7.376652,7.376652,60.0,60.0,60.0
3919,Bi8La6Pt6,164.48,220,8.889951,8.889951,8.889951,109.4712,109.4712,109.4712
3920,B4C4Gd2,627.003,131,3.80743,3.80743,7.37664,90.0,90.0,90.0
3921,Ag2Dy2Pb2,198.81,186,4.832874,4.832874,7.465952,90.0,90.0,119.9994
3922,Er4Mg2Se8,201.528,227,8.219744,8.219744,8.219744,60.0,60.0,60.0
3923,C2Cs2Pt1,175.348,164,5.725473,5.725569,5.253253,90.00015,90.0,119.9994
3924,Ge4Y4Zn4,356.848,194,4.230344,4.230344,15.70175,90.0,90.0,120.0004
3925,Hf4La4O14,454.664,227,7.682346,7.682346,7.682346,60.0,60.0,60.0
3926,C4Co8Ta16,375.188,227,8.271072,8.271072,8.271072,60.0,60.0,60.0
3927,Pb2Te6Tl8,132.571,140,9.213457,9.213457,9.213457,121.7981,121.7981,86.91283
3928,Ge26Ir8Y6,350.649,223,9.017084,9.017084,9.017084,90.0,90.0,90.0
3929,Rh4Si6Y6,395.726,63,5.719307,5.719307,13.77257,90.0,90.0,137.1767
3930,Rh3Sn3Tb3,229.676,189,7.617855,7.617855,3.8446629999999997,90.0,90.0,120.0001
3931,Cr2O8P2,677.561,63,4.72908,4.72908,6.295373,90.0,90.0,112.7583
3932,Ba1O3Tb1,336.293,221,4.454857,4.454857,4.454857,90.0,90.0,90.0
3933,C2Ti4Tl2,424.905,194,3.21474,3.214734,14.33244,90.0,90.0,120.0001
3934,B4C4Ca2,821.719,131,3.792728,3.792728,7.589822,90.0,90.0,90.0
3935,S12Sr4Zr4,347.353,62,6.7912669999999995,7.182885,9.84756,90.0,90.0,90.0
3936,Ca4Pt4Sn4,201.888,62,4.656726,7.368169,8.078267,90.0,90.0,90.0
3937,La3Pb3Pd3,198.944,189,7.936041,7.936041,4.238822,90.0,90.0,120.0005
3938,Cu2Ho2Si2,356.772,194,4.151982,4.151982,7.386849,90.0,90.0,119.9994
3939,Ho2Ni1Sn6,229.591,65,11.62664,11.62664,4.47636,90.0,90.0,158.1821
3940,As4Dy4Ni2,288.839,194,4.09983,4.09983,14.22123,90.0,90.0,119.9997
3941,Ni2Rh4S8,303.403,227,6.889248,6.889248,6.889248,60.0,60.0,60.0