,full_formula,band_gap,spacegroup.number,structure.lattice.a,structure.lattice.b,structure.lattice.c,structure.lattice.alpha,structure.lattice.beta,structure.lattice.gamma
11936,Cl1N1Sr2,1.9359000000000002,166,7.456979,7.456979,7.456979,30.44888,30.44888,30.44888
11937,O3Sb1Sc1,0.3346,221,4.095535,4.095535,4.095535,90.0,90.0,90.0
11938,Co1Ga1Y2,0.5242,216,4.784707,4.784707,4.784707,60.0,60.0,60.0
11939,F32O8Ru8,1.0551,19,5.915111,9.772529,13.25056,90.0,90.0,90.0
11940,Cd4Na4P4,0.19640000000000002,62,4.387519,7.44487,7.881275,90.0,90.0,90.0
11941,Cs12N44P24,4.108,213,10.76314,10.76314,10.76314,90.0,90.0,90.0
11942,Au1Nb1O3,0.5705,221,4.011226,4.011226,4.011226,90.0,90.0,90.0
11943,Al2La2O6,3.3115,167,5.413646,5.417991,5.417991,60.0,59.97345,59.97345
11944,F3Hf1I1,0.10890000000000001,221,4.312768,4.312768,4.312768,90.0,90.0,90.0
11945,Dy2O8P2,5.9062,141,5.77854,5.77854,5.77854,105.973,105.973,116.72
11946,O20Ta4V4,2.2263,62,5.619166,7.067651,12.09006,90.0,90.0,90.0
11947,Al2La2O6,3.2929,140,5.428993,5.428993,5.428993,120.1994,120.1994,89.65498
11948,Ba8O20W4,2.8723,62,5.8065549999999995,7.547945,11.69134,90.0,90.0,90.0
11949,Na12S14Sn4,1.853,15,7.206,7.206,15.37716,80.27716,80.27716,97.79361
11950,As4O22Te6,3.1143,2,6.684197,10.76342,7.969445,69.969,78.71842,80.0101
11951,Cl2O2V2,1.1709,59,3.367363,3.843717,8.19993,90.0,90.0,90.0
11952,Fe4O8Si2,2.4042,227,5.893679,5.893679,5.893679,60.0,60.0,60.0
11953,K4Sb4Se8,1.3902,1,13.32395,6.629608,6.626962,78.02794,69.62975,76.46035
11954,Ga6N10Sr6,1.4435,2,5.9803239999999995,7.257582,8.742094,108.3848,103.6651,95.34295
11955,Cl4Cu4O2,0.631,70,6.851968,6.269829,6.158885,66.90578,57.32116,55.77307
11956,Ba4Ge4O12,3.4902,19,4.668882,5.833877,13.05122,90.0,90.0,90.0
11957,Gd1S2Tl1,1.5015,166,7.86907,7.86907,7.86907,30.06286,30.06286,30.06286
11958,Cu3Se4Ta1,1.8014000000000001,215,5.761106,5.761106,5.761106,90.0,90.0,90.0
11959,As3B3O12,3.8569,152,4.636815,4.636337,10.52132,90.00207,90.03967,60.00449
11960,C4H8O8,4.8378,33,3.775563,5.432502,10.53231,90.0,90.0,90.0
11961,Ba2Bi2O6,0.024900000000000002,148,6.213684,6.213684,6.213684,60.58479,60.58479,60.58479
11962,B16K8O28,4.8099,2,6.580721,9.792712,10.55861,89.45166,102.7562,101.1631
11963,Al2Cu2S4,2.0473,122,6.494431,6.494431,6.494431,131.1772,131.1772,71.53174
11964,Cs2I6Sn2,0.6731,127,8.917672,8.917672,6.390962,90.0,90.0,90.0
11965,Al8O20Si4,4.8435,58,5.610994,7.87392,7.9781320000000004,90.0,90.0,90.0
11966,Na1Nb1O3,1.8269000000000002,221,3.986174,3.986174,3.990245,90.0,90.0,89.91701
11967,Nd1Rb1Te2,1.359,166,9.090868,9.090868,9.090868,29.92356,29.92356,29.92356
11968,Al2O6Pr2,3.9266,167,5.365204,5.38906,5.38906,60.0,59.8528,59.8528
11969,Hg4P56Sn4,1.2101,62,9.892941,11.05624,13.42545,90.0,90.0,90.0
11970,Li8O12Ti4,3.4847,15,5.155818,5.155785,9.88271,84.92917,84.92801,120.0973
11971,Br18Rb6V6,2.2821,185,13.10993,13.10993,6.609315,90.0,90.0,120.0023
11972,As4Co4S4,1.0907,29,5.599504,5.603831,5.595988,90.0,90.0,90.0
11973,Cd1F6Pd1,2.2662,148,5.735356,5.237264,5.2372,59.99236,62.82945,62.82432
11974,H2La2O4,4.5062999999999995,11,3.997065,4.196208,6.431211,77.405,90.0,90.0
11975,Ge4N4O2,2.5564,36,5.525056,5.525056,5.166135,90.0,90.0,116.6505
11976,Ag2Br26Mo12,2.3707000000000003,2,11.14204,14.82481,9.676446,75.4249,55.24001,71.10662
11977,Au7I1P10,0.7518,189,6.270441,6.27042,11.42389,90.0,90.0,120.0001
11978,C1O4Rb4,1.162,8,6.232276,6.232276,5.907968,81.35123,81.35123,112.2005
11979,Co2K12S8,2.0055,186,9.879692,9.879692,7.725766,90.0,90.0,120.0002
11980,Ba1O3Ti1,2.1368,221,4.059831,4.059831,4.059831,90.0,90.0,90.0
11981,W2Zn1Zr1,0.1642,216,4.591127,4.591127,4.591127,60.0,60.0,60.0
11982,In8Rb8S16,2.1581,15,7.979014,7.979014,15.842600000000001,82.75554,82.75554,89.99832
11983,Bi12O32Re4,2.7415000000000003,199,10.17794,10.17794,10.17794,109.4712,109.4712,109.4712
11984,K1O2Pr1,2.8507,166,6.660842,6.660842,6.660842,31.87375,31.87375,31.87375
11985,Cd8S12Si2,1.5066000000000002,9,7.200606,7.200606,12.54611,72.25229,72.25229,59.49487
11986,Al1Ir1La2,0.15430000000000002,216,5.020477,5.020477,5.020477,60.0,60.0,60.0
11987,Cd2Cl12K8,4.0864,167,8.703795,8.703795,8.703795,89.87098,89.87098,89.87098
11988,S8Sb4Tl4,1.5708,2,6.472426,6.342247,12.82029,67.98019,73.95903,77.17656
11989,B1Ni1Ta1,0.8186,216,3.831528,3.831528,3.831528,60.0,60.0,60.0
11990,Pd1Ta1Tl1,0.3773,216,4.456619,4.456619,4.456619,60.0,60.0,60.0
11991,Al4Mg2O8,5.1096,227,5.777482,5.777482,5.777482,60.0,60.0,60.0
11992,Mn8O16Ti4,1.7772999999999999,95,6.273549,6.273549,8.751315,90.0,90.0,90.0
11993,Fe8O24W4,1.5802,60,4.617316,5.059548,16.96427,90.0,90.0,90.0
11994,Cr4F24Xe4,0.5882000000000001,14,7.058198,9.057521,11.81199,91.54804,90.0,90.0
11995,O12Se4Sn2,2.5665,14,8.784988,4.933609,7.12639,71.14208,90.0,90.0
11996,Nb4O14Sn4,1.0459,227,7.600306,7.600306,7.600306,60.0,60.0,60.0
11997,Ag2Ga2Se4,0.6974,122,7.05089,7.05089,7.05089,128.5751,128.5751,75.69522
11998,O8Rb2Re2,4.1595,88,7.942843,7.942843,7.942843,135.7461,135.7461,64.37304
11999,F8Pd2Sr2,2.3794,140,6.876141,6.876141,6.876141,129.2375,129.2375,74.62865
12000,Ba2O6Pb2,0.2051,74,6.151363,6.151363,6.151363,120.2212,119.3356,90.38596
12001,Ba1F3Rh1,1.4466,221,5.072175,5.072175,5.072175,90.0,90.0,90.0
12002,Al2Nd2O6,3.7138999999999998,167,5.347542,5.347542,5.347542,60.47428,60.47428,60.47428
12003,F12Na6V2,2.0609,14,6.391938,5.803264,8.345132,73.43394,90.0,90.0
12004,Au1Cr3O8,1.1679,12,5.152185,5.152185,7.67206,83.44051,83.44051,65.34859
12005,As2Dy2O8,3.6328,141,5.9743759999999995,5.9743759999999995,5.9743759999999995,115.6955,106.4471,106.4561
12006,Fe20O48Si12,1.9162,230,10.28606,10.28606,10.28606,109.4712,109.4712,109.4712
12007,C8Cs8O16,4.1749,14,11.2097,6.706672,8.772215,82.62157,90.0,90.0
12008,Au1Ca1F3,1.4429,221,4.421911,4.421911,4.421911,90.0,90.0,90.0
12009,Rb2Te1Zn1,1.7546,225,6.194543,6.194543,6.194543,60.0,60.0,60.0
12010,Ca2O8Tl4,0.048600000000000004,63,5.857326,5.857326,10.64898,90.0,90.0,146.4492
12011,Cr8K8O28,2.7088,2,7.5931809999999995,7.647619,13.66139,95.54504,97.62295,90.96297
12012,F12Li4Ti2,4.8744,136,4.737515,4.737515,9.124885,90.0,90.0,90.0
12013,B6La6N12,2.1204,2,7.242828,7.011388,7.871167,74.16531,74.16632,56.10059
12014,Co2Rh4S8,0.9024000000000001,227,7.083857,7.083857,7.083857,60.0,60.0,60.0
12015,Cu4S4Ti1,1.6889,121,6.601878,6.601878,6.601878,130.7636,130.7636,72.18887
12016,Ba2O8W2,4.6888000000000005,88,7.598414,7.598414,7.598414,135.67,135.67,64.49094
12017,Al2F12Na6,5.7425,14,6.3700849999999996,5.613298,8.094481,105.1235,90.0,90.0
12018,Gd2O8V2,2.9352,141,6.07884,6.07884,6.07884,106.1629,106.1629,116.3122
12019,Br8Cs6Li2,3.8723,20,9.362732,9.362732,8.20897,90.0,90.0,105.0471
12020,B10O21Pb6,3.2546,2,6.958861,7.111242,11.48922,83.30923,77.52102,61.21893
12021,Br2Lu2O2,4.3341,129,3.744516,3.744516,8.433645,90.0,90.0,90.0
12022,Br2Cr2S2,0.6292,59,3.5926080000000002,4.842615,8.219018,90.0,90.0,90.0
12023,As3Ga3O12,3.1159,152,5.097434,5.097669,11.60424,90.0017,90.00076,119.9999
12024,As4K4Si2,0.9986,72,8.242604,8.242604,8.242604,134.0454,129.2837,70.82898
12025,Ba8Cl24Co4,3.2721999999999998,14,8.436296,9.303762,14.44499,83.32319,90.0,90.0
12026,Ni1P4Si3,0.3579,121,6.371916,6.371916,6.371916,131.8807,131.8807,70.41745
12027,O14Y4Zr4,2.7011000000000003,227,7.498894,7.498894,7.498894,60.0,60.0,60.0
12028,Cu2O4Sc2,2.6414,194,3.290721,3.290721,11.47446,90.0,90.0,120.0032
12029,Ag24Au8S16,0.6432,213,9.91935,9.91935,9.91935,90.00805,90.00805,89.99195
12030,Bi2O8Sb2,0.5356000000000001,15,3.9081159999999997,3.9081159999999997,11.03312,82.95644,82.95644,88.39326
12031,Mo2O8Zr1,3.1074,12,6.184155,6.184155,5.223256,99.4968,99.4968,60.24926
12032,Ag30K6S18,1.2897,190,13.52206,13.52206,8.109814,90.0,90.0,120.0024
12033,Cd4O8Si2,1.5806,70,7.798004,6.7208369999999995,5.847201,76.34804,56.87877,46.77319
12034,Al16Ba8O32,4.0669,173,10.570640000000001,10.57071,8.898655,90.0,90.0,119.9991
12035,Fe4S4Sb4,0.6701,14,6.018773,6.031395,6.058308,67.54966,90.0,90.0
12036,H4O8S2,6.1138,15,4.771173,4.771173,9.064653,72.57338,72.57338,62.11342
12037,Ca2Ga4S8,2.6423,66,5.922095,5.922095,10.21537,90.0,90.0,118.6388
12038,Cu2O4Y2,2.7634,194,3.553956,3.553956,11.47634,90.0,90.0,120.0031
12039,Ho1Na1S2,2.3179,166,7.067749,7.067749,7.067749,32.61583,32.61583,32.61583
12040,As1Cu2Sc1,0.0494,216,4.474109,4.474109,4.474109,60.0,60.0,60.0
12041,Cr1Na1Se2,0.6207,166,7.190101,7.190101,7.190101,30.85489,30.85489,30.85489
12042,F3K1Ni1,3.6538,221,4.072537,4.072537,4.072537,90.0,90.0,90.0
12043,Ba4Tb8Te16,0.782,62,4.503382,13.8324,16.36003,90.0,90.0,90.0
12044,Al4H4O8,3.8395,59,3.655021,2.915158,15.19222,90.0,90.0,90.0
12045,O4Sn1Sr2,2.169,139,7.00428,7.00428,7.00428,145.2807,145.2807,49.91646
12046,Ba1F6Ti1,4.8003,166,5.015737,5.015737,5.015737,97.82424,97.82424,97.82424
12047,Na12S12Sb4,2.3932,198,8.707015,8.707015,8.707015,90.0,90.0,90.0
12048,H24N10Rb6,2.1076,199,8.807857,8.807857,8.807857,109.4712,109.4712,109.4712
12049,B2O9S2,6.6801,5,4.483075,4.483075,8.917878,86.86395,86.86395,57.31761
12050,Bi2Fe2O6,1.6607,161,5.731807,5.731807,5.731807,59.00763,59.00763,59.00763
12051,Ga1Li2N1,0.0692,225,4.025967,4.025967,4.025967,60.0,60.0,60.0
12052,Al4O8Zn2,4.4916,227,5.731153,5.731153,5.731153,60.0,60.0,60.0
12053,Ni2O12Ta4,2.8841,136,4.786348,4.786348,9.223593,90.0,90.0,90.0
12054,Mg2O6V2,2.4078,36,5.784099,5.784099,5.302841,90.0,90.0,125.171
12055,O28P8Sr8,5.1107,33,5.473499,9.022974,13.286950000000001,90.0,90.0,90.0
12056,Mn6O12Te2,0.7888000000000001,148,6.329664,6.329664,6.329664,90.60127,90.60127,90.60127
12057,F3K1Pt1,0.6354000000000001,221,4.455718,4.455718,4.455718,90.0,90.0,90.0
12058,Ba8S16Sn4,1.6782,14,8.740234,8.645854,11.91354,70.39709,90.0,90.0
12059,I10K2Sn4,1.5065,140,10.26003,10.26003,10.26003,127.7427,127.7427,77.04226
12060,Cl6K2Pt1,1.9802,225,7.077183,7.077183,7.077183,60.0,60.0,60.0
12061,S12Sc4Y4,1.9929000000000001,33,6.438876,7.055819,9.640546,89.99993,90.00008,89.99958
12062,Ge4N8Zn4,2.0801,33,5.187609,5.465922,6.427353,90.0,90.0,90.0
12063,Ba6S18Sn12,1.2591999999999999,11,13.73344,6.271226,12.15699,78.59715,90.0,90.0
12064,Ga1Pd1V1,0.2746,216,4.166874,4.166874,4.166874,60.0,60.0,60.0
12065,Mn8Se16Si4,1.121,62,6.317889,7.930078,13.53894,90.0,90.0,90.0
12066,Ba2Mn4O16,0.196,70,10.6875,8.387381,7.677499,83.28046,51.20505,45.51449
12067,Cl2H2Sr2,4.0282,129,4.122115,4.122115,7.020196,90.0,90.0,90.0
12068,La4O12V4,0.8805000000000001,62,5.63325,5.699354,7.950952,90.0,90.0,90.0
12069,O20S4V4,1.2884,62,6.384996,7.387195,7.271234,90.0,90.0,90.0
12070,Cs4Se6Sn2,1.5804,12,8.546279,8.546279,10.91862,58.78442,58.78442,53.11687
12071,Al2La2O6,3.5598,167,5.415854,5.415854,5.415854,60.1214,60.1214,60.1214
12072,Al1H6Nd1,2.0148,166,4.22015,4.22015,4.22015,98.14848,98.14848,98.14848
12073,Al1La1O3,3.1267,221,3.831862,3.831862,3.831862,90.0,90.0,90.0
12074,B2H8Na2,5.456,6,4.40326,4.668546,7.634141,79.22141,90.0,90.0
12075,O3Sr1Ti1,2.2897,221,3.972884,3.972884,3.972884,90.0,90.0,90.0
12076,Br6Cd2Cs2,2.9954,194,7.85128,7.85128,6.8804300000000005,90.0,90.0,120.0008
12077,Ga2Te4Tl2,0.523,140,7.018309,7.018309,7.018309,104.0992,104.0992,120.8503
12078,K4Nb20O52,2.6646,57,5.744775,10.89227,17.01862,90.0,90.0,90.0
12079,Al2Cd1Se4,2.0519,82,6.835498,6.835498,6.835498,129.2336,129.2336,74.63501
12080,Fe4Mo6O16,1.6156000000000001,36,5.858366,5.86099,10.26874,90.0,90.0,119.9852
12081,Ba8Mn4Se12,1.6598000000000002,62,4.53277,9.290991,18.01383,90.0,90.0,90.0
12082,Eu4Se16Y8,1.2268,62,4.153628,12.57127,15.0151,90.0,90.0,90.0
12083,Br2H2Sr2,3.8042,129,4.225165,4.225165,7.438981,90.0,90.0,90.0
12084,Cu3S4Ta1,2.1607,215,5.580513,5.580513,5.580513,90.0,90.0,90.0
12085,O16S4Zn4,4.4591,62,4.795636,6.696788,8.596742,90.0,90.0,90.0
12086,Gd8O4S8,2.2743,14,7.02815,6.9642219999999995,8.395336,80.92137,90.0,90.0
12087,Cl9Cs3Fe2,1.6562999999999999,164,7.297172,7.297172,9.12773,90.00172,89.99828,120.0037
12088,B2K6P4,1.649,15,6.503903,6.503903,9.040428,75.0676,75.0676,87.02052
12089,Au2F22U4,1.09,140,8.604892,8.604892,8.604892,97.8188,97.8188,136.7122
12090,Er4O36P12,5.7381,6,9.758521,7.044716,11.0431,88.02559,90.0,90.0
12091,Mg2O6Si2,5.8039000000000005,148,5.342577,5.342577,5.342577,53.18485,53.18485,53.18485
12092,In1Li1Si1,0.1096,216,4.446689,4.446689,4.446689,60.0,60.0,60.0
12093,O3Pb1Ti1,2.2021,99,3.970396,3.970396,4.217596,90.0,90.0,90.0
12094,Ca4Mn4O12,0.3866,62,5.411901,5.33255,7.568986,90.0,90.0,90.00032
12095,Gd2O8Ta2,4.1177,13,5.584868,5.226228,5.408713,83.07566,90.0,90.0
12096,O3Rh1Si1,0.4117,221,3.613223,3.613223,3.613223,90.0,90.0,90.0
12097,O20U4V4,1.6042,57,4.20939,7.317366,12.57009,90.0,90.0,90.0
12098,Ce2F4Se1,3.3292,166,8.167686,8.167686,8.167686,29.7817,29.7817,29.7817
12099,B16Li8O28,3.7702,110,9.517353,9.517353,9.517353,112.2735,112.2735,104.0012
12100,P4S16Tl12,2.2521,62,9.05168,9.274822,11.10535,90.0,90.0,90.0
12101,Cr4Se8Zn2,0.3916,227,7.538634,7.538634,7.538634,60.0,60.0,60.0
12102,Li7O6Sb1,3.5042999999999997,146,5.884997,5.884997,5.884997,57.15475,57.15475,57.15475
12103,Fe2La2O6,1.0729,167,5.592921,5.592921,5.592928,61.14073,61.14085,61.14124
12104,Al1Li1Si1,0.115,216,4.201629,4.201629,4.201629,60.0,60.0,60.0
12105,Ag6Cs2S4,0.7594000000000001,12,8.542414,8.542414,9.104608,67.54088,67.54088,29.96602
12106,C2Li4O6,5.0409,15,4.92975,4.92975,6.296924,68.83221,68.83221,61.68588
12107,Fe2K2S4,0.7361000000000001,15,6.735601,6.735601,5.966937,75.03389,75.03389,110.562
12108,F28Sb4Xe2,1.8965,2,8.540424999999999,10.29365,8.249426,72.07871,67.66754,61.92725
12109,Ge2P4Zn2,1.2415,122,6.650951,6.650951,6.650951,131.266,131.266,71.3908
12110,Cr2Dy2O8,0.19190000000000002,141,5.992125,5.992125,5.992125,105.983,105.983,116.6985
12111,F20K2Y6,6.9441,225,8.278659,8.278659,8.278659,60.0,60.0,60.0
12112,C2K8O8,3.0066,86,7.215037,7.215037,5.524196,90.0,90.0,90.0
12113,K1O3Ta1,2.3226,221,4.043724,4.043724,4.043724,90.0,90.0,90.0
12114,Mg2O6Ti2,3.8297,148,5.551827,5.551827,5.551827,55.13284,55.13284,55.13284
12115,I20Pb4Tl12,2.5987999999999998,19,9.080485,9.810884,16.501640000000002,90.0,90.0,90.0
12116,I10K2Sn4,1.5112999999999999,140,10.29222,10.29222,10.29222,127.8759,127.8759,76.82618
12117,C1K1N1,4.931,8,3.951856,3.951856,3.964229,86.71622,86.71622,86.62827
12118,In1Na1S2,1.9216000000000002,166,7.033248,7.033248,7.033248,31.67475,31.67475,31.67475
12119,Ag3As2K3,1.3646,166,8.021799,8.021799,8.021799,44.33005,44.33005,44.33005
12120,Cu3Nb1S4,1.9021,215,5.5647780000000004,5.5647780000000004,5.5647780000000004,90.0,90.0,90.0
12121,Cu6P2S8,1.3787,31,6.095198,6.35503,7.304539,90.0,90.0,90.0
12122,Ni1Sn1Ti1,0.1454,216,4.24799,4.24799,4.24799,60.0,60.0,60.0
12123,La2Ni1O4,0.1829,139,6.947177,6.947177,6.947177,147.164,147.164,47.12105
12124,Ce4O24Se8,1.9939,14,10.99787,7.514718,7.541697,79.49045,90.0,90.0
12125,C2Mg2N4,3.8502,122,4.428613,4.428613,4.428613,119.0198,119.0198,91.7064
12126,Al2Na2Te4,1.2827,140,6.797517,6.797517,6.797517,104.77590000000001,104.77590000000001,119.3355
12127,Al2H12Li6,3.6128,148,5.574641,5.574641,5.574641,91.39641,91.39641,91.39641
12128,Li8O16Sb8,3.0611,14,18.38991,4.992063,5.697323,89.99027,90.0,90.0
12129,Mn4N8Si4,1.9933,33,5.133378,5.346848,6.615622,90.0,90.0,90.0
12130,Ag4C8N12,3.8945,62,3.851541,6.105242,16.40992,90.0,90.0,90.0
12131,K12Sb4Te12,1.6917,198,10.550229999999999,10.550229999999999,10.550229999999999,90.0,90.0,90.0
12132,Mo4O16Zr2,2.8293,15,7.077404,7.077404,7.5997959999999996,63.86346,63.86346,69.53078
12133,Br2Mo2Te8,0.8476,2,6.916484,8.963327,8.294883,57.20194,77.09234,67.64979
12134,Ho16Mo16O44,0.3561,55,5.695618,10.73777,15.92984,90.0,90.0,90.0
12135,O16P4Pb6,3.5148,15,7.610333,7.610333,9.490428,79.38174,79.38174,46.42969
12136,Ho8P8S8,0.2082,62,5.3031880000000005,5.334804,16.686700000000002,90.0,90.0,90.0
12137,Ga2Te4Zn1,1.1098,82,7.358895,7.358895,7.358895,131.3728,131.3728,71.22138
12138,Mo2O8Sr2,3.6748000000000003,88,7.230732,7.230732,7.230732,135.4347,135.4347,64.85546
12139,Fe1O3Y1,0.30560000000000004,221,3.892624,3.892624,3.892624,90.0,90.0,90.0
12140,Cd1In2Se4,0.9353,111,6.087746,5.877342,5.877342,90.0,90.0,90.0
12141,Hg24O48Te8,0.6031000000000001,230,11.90733,11.90733,11.90733,109.4712,109.4712,109.4712
12142,P4Se16Tl12,1.4309,62,9.32636,9.58856,11.3122,90.0,90.0,90.0
12143,Co18O36Te6,1.3912,15,8.730959,8.730959,10.49254,85.87616,85.87616,61.60227
12144,Ca6Ga4N8,1.9888,15,6.799333,6.799333,5.592224,89.10853,89.10853,76.14512
12145,As4Cu8O18,0.9973000000000001,2,8.399001,7.79093,6.490824,81.88106,66.66572,75.25101
12146,Er8P8S32,2.1452,142,12.16834,12.16834,12.16834,127.5954,127.5954,77.28147
12147,Ag1In5Se8,0.40040000000000003,111,5.866124,5.866124,12.10666,90.0,90.0,90.0
12148,K8Re12S24,1.4447,15,9.711231,9.711231,12.0112,88.8599,88.8599,61.59215
12149,Mg4O44P16,5.1186,14,22.53255,5.465372,7.559306,68.93773,90.0,90.0
12150,C2Ca2O6,5.0034,167,6.447785,6.447785,6.447785,46.09042,46.09042,46.09042
12151,Ba4O16S4,5.9439,62,5.539075,7.2674009999999996,9.050676,90.0,90.0,90.0
12152,C6H12O6,6.2552,161,6.172742,6.172742,6.172742,100.761,100.761,100.761
12153,Al6C6Sc2,0.2931,194,3.369285,3.369236,16.91219,90.0,90.0,120.0005
12154,Gd1Na1S2,2.0752,166,7.09476,7.09476,7.09476,33.00583,33.00583,33.00583
12155,O8Si2U2,2.5359,141,5.923869,5.923869,5.923869,106.5453,106.5453,115.4963
12156,Ge8Rb8Se20,1.4909,15,11.71879,11.71879,9.643994,79.47415,79.47415,90.06756
12157,B8O14Pb2,4.2018,31,4.291918,4.50288,10.97635,90.0,90.0,90.0
12158,K16Tl20Zn2,0.11270000000000001,126,10.4936,10.4936,14.00934,90.0,90.0,90.0
12159,S24Sn10Tl8,1.0513,2,17.67062,9.980598,7.601098,68.15417,77.70509,72.45812
12160,Al2O6Pr2,3.9048,167,5.365821,5.387259,5.387259,60.0,59.86775,59.86775
12161,F26Rb2Th6,6.644,26,7.719446,8.518626,9.066477,90.0,90.0,90.0
12162,Fe8O16Si4,2.3737,2,4.880432,6.166836,10.62659,89.66669,89.9668,90.04799
12163,P4Si2Zn2,1.3659,122,6.488508,6.488508,6.488508,130.7059,130.7059,72.28073
12164,Ca16O36P8,4.4805,4,12.0995,7.06647,9.56089,89.02204,90.0,90.0
12165,Cl2F2Sr2,5.9334,129,4.172775,4.172775,7.040282,90.0,90.0,90.0
12166,Ca8N12V4,1.7797,15,5.953977,5.953977,11.67169,88.98534,88.98534,123.2641
12167,F3K1Pd1,0.9196000000000001,221,4.37933,4.37933,4.37933,90.0,90.0,90.0
12168,Cr4Se8Zn2,0.3916,227,7.538634,7.538634,7.538634,60.0,60.0,60.0
12169,Ca8O16Si4,4.2616,14,6.068069,5.601947,12.167300000000001,84.80718,90.0,90.0
12170,Cl48Rb24Zn12,4.7885,33,7.395047,12.93241,28.08341,90.0,90.00029,90.0
12171,Mg4O8Si2,4.7587,227,5.763328,5.763328,5.763328,60.0,60.0,60.0
12172,C1I1N1,4.3259,160,4.558495,4.558495,4.558495,102.8126,102.8126,102.8126
12173,C2Na4O6,3.7879,12,5.223131,5.223131,6.161247,80.56088,80.56088,61.14542
12174,Ba2O6Pr2,0.32430000000000003,74,6.281928,6.281928,6.281928,119.9985,119.5614,90.38195
12175,N4O2Si4,4.9338,36,5.268363,5.268363,4.896018,90.0,90.0,116.6205
12176,Ni1Pb1Zr1,0.14780000000000001,216,4.404882,4.404882,4.404882,60.0,60.0,60.0
12177,Cl8Sr2Zn2,4.6229,88,8.62222,8.62222,8.62222,135.5859,135.5859,64.6212
12178,O8Si2Th2,4.8618,141,6.1458639999999995,6.1458639999999995,6.1458639999999995,106.1762,106.1762,116.2837
12179,H8O16U4,3.5856,61,5.948874,6.349305,10.00467,90.0,90.0,90.0
12180,Ca20O60Te20,2.9288,78,12.27648,12.27648,11.19693,90.0,90.0,90.0
12181,Nd4O22Te8,3.2529,15,6.926649,6.926649,16.73425,76.56817,76.56817,45.04408
12182,Fe1Li1P1,0.2308,107,4.552399,4.552399,4.552399,143.6681,143.6681,52.3239
12183,Cu3O4V1,0.7223,121,5.586451,5.586451,5.586451,131.3131,131.3131,71.31617
12184,Mg6O12Te2,2.8904,148,6.115057,6.115057,6.115057,90.72102,90.72102,90.72102
12185,H2Ni1O2,3.0733,164,3.159525,3.159525,4.539692,90.00108,89.99893,120.0024
12186,Er2O8P2,5.9473,141,5.734327,5.734327,5.734327,105.9558,105.9558,116.757
12187,Bi12O20Si1,2.4215,197,8.887513,8.887513,8.887513,109.4712,109.4712,109.4712
12188,Ca6O18Si6,4.8369,2,8.014527,7.39332,7.14413,90.07453,95.38557,103.422
12189,C1O4Rb4,0.6918000000000001,81,6.943436,6.943436,5.018672,90.0,90.0,90.0
12190,Cs2O4Sb2,2.3556,15,6.613242,6.613242,5.671698,70.31588,70.31588,102.2917
12191,Bi1Li1Mg1,0.46240000000000003,216,4.816835,4.816835,4.816835,60.0,60.0,60.0
12192,Ga4S4Te2,2.0595,109,7.209151,7.209151,7.209151,120.4587,120.4587,89.20733