,full_formula,band_gap,spacegroup.number,structure.lattice.a,structure.lattice.b,structure.lattice.c,structure.lattice.alpha,structure.lattice.beta,structure.lattice.gamma
9583,Cu1Li1S1,1.33,216,3.945596,3.945596,3.945596,60.0,60.0,60.0
9584,Cs8H20Mg6,3.2862999999999998,64,7.98019,7.98019,13.74417,90.0,90.0,133.8428
9585,Cu6Se4Tl2,0.38470000000000004,12,7.86944,7.86944,8.501937,69.11618,69.11618,29.48003
9586,Ag1N1O2,1.9892,44,4.440997,4.440997,4.440997,131.1047,106.6969,93.16746
9587,H12Mg4Na4,3.3743,62,5.359132,5.441647,7.6483229999999995,90.0,90.0,90.0
9588,Bi12O20Si1,2.4162,197,8.890471,8.890471,8.890471,109.4712,109.4712,109.4712
9589,Cr2Hf1Zn1,0.1395,216,4.353431,4.353431,4.353431,60.0,60.0,60.0
9590,Gd2Na2O4,3.7104,141,6.233016,6.233016,6.233016,135.7994,135.7994,64.29062
9591,Li2Nb2O6,3.4137,161,5.544093,5.544093,5.544093,56.04429,56.04429,56.04429
9592,Al1Ir1Sc2,0.2937,216,4.5919609999999995,4.5919609999999995,4.5919609999999995,60.0,60.0,60.0
9593,Ce2O2Te1,1.87,139,7.170369,7.170369,7.170369,146.5127,146.5127,48.08588
9594,Li4Mo4S8,1.0601,2,6.691701,6.819425,6.292042,90.13157,90.21045,61.10562
9595,Al8As16K24,0.4742,2,15.66939,12.28384,9.178944,72.16975,72.99974,72.58272
9596,C24H72P8,4.1612,62,5.49771,9.442635,22.40188,90.0,90.0,90.0
9597,Au8O32S8,1.583,61,8.525362,8.827956,10.51558,90.0,90.0,90.0
9598,Cs2Fe2O4,1.7527,227,6.168989,6.168989,6.168989,60.0,60.0,60.0
9599,Ba4Fe8Se12,0.6229,62,5.513166,9.806822,12.36351,90.0,90.0,90.0
9600,C2Ca2O6,4.9971,167,6.457257,6.457257,6.457257,46.06282,46.06282,46.06282
9601,Ge4Pt4Se4,0.5409,29,6.064192,6.089174,6.145444,90.0,90.0,90.0
9602,Bi1Cr1O3,0.14880000000000002,221,3.914456,3.914456,3.914456,90.0,90.0,90.0
9603,O18Si6Sr6,4.605,15,7.227389,7.227389,10.97469,71.39659,71.39659,60.13303
9604,Mg16O48Si16,4.6716,61,5.239151,8.940746,18.444490000000002,90.0,90.0,90.0
9605,Bi4Na12O12,2.9059,217,8.431101,8.431101,8.431101,109.4712,109.4712,109.4712
9606,Li56Mn8N32,1.1006,218,9.592009000000001,9.592009000000001,9.592009000000001,90.0,90.0,90.0
9607,O14Sn4Y4,2.2508,227,7.497947,7.497947,7.497947,60.0,60.0,60.0
9608,Gd1Se2Tl1,1.0392,166,8.12663,8.12663,8.12663,30.13525,30.13525,30.13525
9609,Eu2F2O2,0.12510000000000002,166,6.880629,6.880629,6.880629,33.4661,33.4661,33.4661
9610,Cr8O28Rb8,2.7228,2,13.81872,7.921342,7.861601,86.71714,89.00735,82.1877
9611,Cl32I4P4,1.6752,74,12.3652,12.3652,12.3652,118.3971,116.8197,94.19987
9612,F4N4O4,3.1789,19,4.275211,4.517699,10.74029,90.0,90.0,90.0
9613,Nb4O20P4,2.5508,33,5.398758,6.772059,11.43572,90.0,90.0,90.0
9614,Bi4Rh4S4,0.4491,198,6.21989,6.21989,6.21989,90.0,90.0,90.0
9615,Ba4Re12S22,1.3108,167,12.06743,12.067,12.067,45.36709,45.36416,45.36416
9616,N16O12S16,1.5474,14,10.58817,6.231227,12.85741,80.26577,90.0,90.0
9617,O28P8Zr4,4.4711,205,8.549871,8.549871,8.549871,90.0,90.0,90.0
9618,C8K4N12,4.3222000000000005,62,4.031231,8.60766,12.80373,90.0,90.0,90.0
9619,I2O8Rb2,2.4406,88,7.960555,7.960555,7.960555,135.1716,135.1716,65.26374
9620,Ce2O2S1,2.4696,164,4.046961,4.046782,6.961951,89.99859000000001,90.0,120.0015
9621,F3Pd1Sb1,1.1541000000000001,221,4.439125,4.439125,4.439125,90.0,90.0,90.0
9622,Ir1Sn1Ta1,1.2281,216,4.419531,4.419531,4.419531,60.0,60.0,60.0
9623,Ba1Cu2S2,0.6980000000000001,139,6.925111,6.925111,6.925111,147.0255,147.0255,47.3261
9624,Co1O4Re1,0.7136,65,4.692649,4.692649,3.082488,90.0,90.0,92.66619
9625,Al2La2O6,3.2484,167,5.419102,5.415731,5.419102,59.97941,60.0,59.97941
9626,Bi2O8P2,3.8373,11,7.219189,4.773964,4.944439,83.1011,90.0,90.0
9627,Cr2O8V2,1.8469,63,5.064685,5.064685,6.190381,90.0,90.0,112.2565
9628,Er8Eu4S16,1.4173,62,3.958294,11.96546,14.24522,90.0,90.0,90.0
9629,Br12In4Zr2,2.1691,128,7.520768,7.520768,10.91717,90.0,90.0,90.0
9630,Ga1K2Sb1,0.6373,225,5.788347,5.788347,5.788347,60.0,60.0,60.0
9631,O3Pb1Ti1,2.1963,99,3.966438,3.966438,4.220241,90.0,90.0,90.0
9632,Fe8Ge4Se16,0.8036000000000001,62,6.316307,7.761289,13.40488,90.0,90.0,90.0
9633,O12Ta4V2,0.8081,136,4.843304,4.843304,9.276109,90.0,90.0,90.0
9634,Bi2Fe2O6,1.6672,161,5.735379,5.735379,5.735379,58.94412,58.94412,58.94412
9635,Cd1O6V2,2.2800000000000002,12,5.106984,5.106984,7.074331,68.59271,68.59271,41.41622
9636,F3K1Mn1,2.6947,221,4.263346,4.263346,4.263346,90.0,90.0,90.0
9637,Cr4Se8Zn2,0.3926,227,7.539606,7.539606,7.539606,60.0,60.0,60.0
9638,Hg2O8W2,2.2709,15,6.555859,6.555859,5.264237,69.89552,69.89552,56.58277
9639,Cr4S8Zn2,1.1687,227,7.135413,7.135413,7.135413,60.0,60.0,60.0
9640,Bi2F8Li2,4.8442,88,6.819867,6.819867,6.819867,133.6281,133.6281,67.66954
9641,B6K6S12,2.7645,167,9.569035,9.569035,9.569035,111.1433,111.1433,111.1433
9642,Cu8Li4O8,0.7293000000000001,62,2.873254,5.739328,12.54796,90.0,90.0,90.0
9643,F4S4Y4,2.5542,194,4.076113,4.076181,16.82599,90.0,90.0,119.9995
9644,Cs1F3Pb1,2.9421,221,4.910303,4.910303,4.910303,90.0,90.0,90.0
9645,Cs2I6Mn2,2.5603,194,8.370825,8.370825,7.127355,90.0,90.0,120.0
9646,C2I28Zr12,0.7956000000000001,64,11.12231,11.12231,13.15099,90.0,90.0,91.62381
9647,S20Tb8Zr4,1.1919,62,7.290096,7.79244,11.61574,90.0,90.0,90.0
9648,Cs2Cu4I6,2.3701,63,8.600576,8.600576,6.130329,90.0,90.0,103.4129
9649,Cl12Mo4S8,1.5363,14,7.692058,6.26862,13.0033,88.69599,90.0,90.0
9650,Ca6O12Te2,1.7372,14,6.622412,5.868234,8.868714,112.8799,90.0,90.0
9651,Ba1O3Ti1,2.1322,221,4.060362,4.060362,4.060362,90.0,90.0,90.0
9652,Cs2Na2Te2,1.9929000000000001,129,5.347464,5.347464,8.641923,90.0,90.0,90.0
9653,Ca2O6Si2,3.6635,140,5.112252,5.112252,5.112252,120.4121,120.4121,89.28763
9654,K2O4U1,2.8635,139,7.347424,7.347424,7.347424,144.9731,144.9731,50.37467
9655,Ba12Cl5F19,5.9824,189,14.29281,14.29281,4.325209,90.0,90.0,120.0019
9656,Ru1Sn1Y2,0.2849,216,4.961849,4.961849,4.961849,60.0,60.0,60.0
9657,Cl12K4Tc4,2.2552,9,8.353925,8.353925,9.034827,86.48151,86.48151,118.4145
9658,F3Na1Tc1,2.0427,221,4.0928,4.0928,4.0928,90.0,90.0,90.0
9659,Cu1Mn1O2,0.2574,12,3.212762,3.212762,5.967147,75.81632,75.81632,54.97641
9660,Bi1F3Pd1,1.0176,221,4.582742,4.582742,4.582742,90.0,90.0,90.0
9661,Ag2Ga2S4,1.5042,122,6.665633,6.665633,6.665633,127.9281,127.9281,76.74161
9662,Fe4O10Ti2,1.6432,15,5.738367,5.738367,7.190594,71.02196,71.02196,53.02877
9663,Mn2S8Sc4,1.3742,227,7.626146,7.626146,7.626146,60.0,60.0,60.0
9664,Ag4C4O8,2.8188,14,6.27526,3.571461,9.700914,86.25891,90.0,90.0
9665,Ca2O6Si2,3.5149,127,5.086257,5.086257,3.634834,90.0,90.0,90.0
9666,Ca4O28V12,2.1208,62,5.368094,10.47812,10.70439,90.0,90.0,90.0
9667,Ca8O16Ru4,0.9812000000000001,61,5.499798,5.798455,11.62181,90.0,90.0,90.0
9668,Ca2Mo2O8,3.3543,88,6.9031400000000005,6.9031400000000005,6.9031400000000005,134.8471,134.8471,65.76787
9669,O8Pd6Tl2,1.8488,225,6.900741,6.900741,6.900741,60.0,60.0,60.0
9670,Ge2P4Zn2,1.2439,122,6.652833,6.652833,6.652833,131.2871,131.2871,71.35726
9671,C4F12O6,4.3607,2,4.993279,7.699918,8.301988,78.78191,86.34567,82.85112
9672,La2Ru1Sn1,0.1535,216,5.130069,5.130069,5.130069,60.0,60.0,60.0
9673,B1Nb1Pt1,1.0637,216,4.058243,4.058243,4.058243,60.0,60.0,60.0
9674,Al4Mg2O8,5.1166,227,5.776042,5.776042,5.776042,60.0,60.0,60.0
9675,O12Si4Zn4,4.1054,15,7.418246,7.418246,5.420135,69.14622,69.14622,87.58851
9676,Au1Mn1V2,0.0511,216,4.277475,4.277475,4.277475,60.0,60.0,60.0
9677,Al4Hg2Se8,0.39080000000000004,227,7.777176,7.777176,7.777176,60.0,60.0,60.0
9678,Cu1Ga1O2,1.0323,166,6.017108,6.017108,6.017108,28.8401,28.8401,28.8401
9679,Ag1In1O2,0.6029,166,6.706166,6.706166,6.706166,28.64141,28.64141,28.64141
9680,Ca2Ge4O10,2.4377,15,5.554461,5.554461,6.97148,76.32391,76.32391,106.5839
9681,Ho2O8Ta2,4.2104,13,5.502001,5.147733,5.332471,83.3872,90.0,90.0
9682,F3In1Mn1,2.5022,221,4.308406,4.308406,4.308406,90.0,90.0,90.0
9683,Ce2Ho6S12,1.0144,11,3.990874,11.35901,11.07967,71.35611,90.0,90.0
9684,Br4S4Sb4,1.7699,33,3.998284,8.726312,10.30561,90.0,90.0,90.0
9685,Cu4S6Si2,1.5881,36,6.38921,6.38921,6.082497,90.0,90.0,119.5421
9686,Ag1Cr1S2,0.9414,160,7.182074,7.182074,7.182074,28.99101,28.99101,28.99101
9687,Ag6As2S6,1.4241000000000001,161,7.022024,7.022024,7.022024,102.52590000000001,102.52590000000001,102.52590000000001
9688,C4O8Sn2,2.6451000000000002,15,6.013432,6.013432,8.419643,60.27445,60.27445,57.59038
9689,O3Ti1Zr1,1.3096,221,4.145717,4.145717,4.145717,90.0,90.0,90.0
9690,Hf1Mg1O3,0.7747,221,3.72068,3.72068,3.72068,90.0,90.0,90.0
9691,Co4N8O24,2.7914,2,7.536203,7.5205079999999995,7.539674,89.99982,90.08824,90.11235
9692,F3K1Sn1,1.5347,221,4.671245,4.671245,4.671245,90.0,90.0,90.0
9693,Ba2O3Pd1,0.6131,71,7.332175,7.332175,7.332175,149.2147,147.0026,45.75029
9694,I2Se4Tl10,0.671,140,9.366284,9.366284,9.366284,123.9798,123.9798,83.23484
9695,O20Te8Tl8,2.2791,14,11.40555,7.81708,11.51461,58.0765,90.0,90.0
9696,P2Rb2S6,1.8162,71,7.444524,7.444524,7.444524,122.3283,105.9427,100.9851
9697,Cu3Se4Ta1,1.802,215,5.756522,5.756522,5.756522,90.0,90.0,90.0
9698,Ba1Ge1S2,0.7639,225,5.14961,5.14961,5.14961,60.0,60.0,60.0
9699,Au2Rb2Se2,1.827,63,5.439446,5.439446,7.045726,90.0,90.0,101.3777
9700,Cu1F6Zr1,2.1427,2,5.712904,5.782766,5.585781,61.42482,60.39857,58.03606
9701,Cu1In1O2,0.44070000000000004,166,6.147116,6.147116,6.147116,31.43509,31.43509,31.43509
9702,Ag6K2Se4,0.3075,12,8.751033,8.751033,8.821824,64.94281,64.94281,29.47175
9703,Cu2In2S4,0.4032,122,6.858791,6.858791,6.858791,132.0439,132.0439,70.15971
9704,Al4O8Zn2,4.4962,227,5.73017,5.73017,5.73017,60.0,60.0,60.0
9705,Hf2O8Si2,5.3088,141,5.5608319999999996,5.5608319999999996,5.5608319999999996,106.9519,106.9519,114.6366
9706,Ga2La2O6,3.3875,167,5.534416,5.534416,5.534416,60.85783,60.85783,60.85783
9707,O8Pd6Tl2,1.8477000000000001,225,6.900878,6.900878,6.900878,60.0,60.0,60.0
9708,Er4O22Te8,3.2248,15,6.7287230000000005,6.7287230000000005,16.25497,75.85498,75.85498,44.9743
9709,C4N16S12,1.9233,14,10.1734,5.65308,14.12918,75.36491,90.0,90.0
9710,Ho1Li1S2,1.9527,166,6.554874,6.554874,6.554874,34.52624,34.52624,34.52624
9711,C8Hg4N8,4.7373,122,8.369841,8.369841,8.369841,107.4702,107.4702,113.5519
9712,Cs8F20Zn6,5.6488,64,7.954463,7.954463,13.86091,90.0,90.0,133.6863
9713,As4La4Te4,0.10310000000000001,62,4.217456,7.91875,10.49428,90.0,90.0,90.0
9714,Ca3O12S3,5.6815,180,7.04983,7.04983,6.35567,90.0,90.0,120.0
9715,Br18Os4Rb6,1.0791,194,7.645179,7.645184,18.58545,90.0,90.0,120.0006
9716,Ce8P8S8,0.21330000000000002,62,5.591655,5.667494,17.33006,90.0,90.0,90.0
9717,Bi8O20Sr8,2.2721999999999998,62,6.244445,7.74532,14.63732,90.0,90.0,90.0
9718,Cl4N4S6,1.6966,4,9.192102,5.737861,6.655447,77.6496,90.00562,90.00713
9719,Al4Mg2O8,5.1104,227,5.777322,5.777322,5.777322,60.0,60.0,60.0
9720,Cl4Cr1Rb2,0.23600000000000002,139,8.778091,8.778091,8.778091,145.5251,145.5251,49.55262
9721,C2K2N2,5.219,9,6.191937,6.191937,7.739043,52.87932,52.87932,39.910470000000004
9722,Gd2O2Se1,1.9866000000000001,164,3.917038,3.917041,6.930367,90.00014,89.99988,120.0001
9723,Bi2Fe2O6,1.6682000000000001,161,5.75409,5.75409,5.75409,58.66961,58.66961,58.66961
9724,B12Li4O20,6.3426,33,4.846305,7.609293,9.52247,90.0,90.0,90.0
9725,As4F24Hg6,2.6325000000000003,14,8.782081,6.140296,11.62111,86.81202,90.0,90.0
9726,Cu1Ga1O2,1.0297,166,6.026385,6.026385,6.026385,28.73505,28.73505,28.73505
9727,W2Zn1Zr1,0.1642,216,4.591127,4.591127,4.591127,60.0,60.0,60.0
9728,Gd2Na2O4,3.6375,141,6.268423,6.268423,6.268423,136.1237,136.1237,63.78909
9729,Al4Na12Te12,0.1555,2,8.682889,6.113647,19.454250000000002,106.2606,90.17289,89.9941
9730,Na1O2Ti1,2.1234,166,5.701471,5.701471,5.701471,32.16615,32.16615,32.16615
9731,B1O4P1,7.2471,82,4.599325,4.599325,4.599325,122.2563,122.2563,86.13442
9732,Li2Nb2O6,3.4245,161,5.548513,5.548513,5.548513,56.00541,56.00541,56.00541
9733,Au1C1N1,2.0097,183,3.581143,3.581143,5.119634,90.0,90.0,120.0
9734,B4H16Mg2,6.5497,119,7.646295,7.646295,7.646295,115.2097,115.2097,98.5188
9735,Au1O3Ta1,0.5341,221,4.017995,4.017995,4.017995,90.0,90.0,90.0
9736,Mg12O32P8,4.9784,2,8.616436,9.094561,9.825658,59.52434,66.08495,65.59006
9737,Al2La2O6,3.7105,167,5.41897,5.43484,5.43484,60.0,59.90308,59.90308
9738,Li6Mo12O39,2.2749,2,8.729262,8.379285,11.99892,67.71533,80.11396,84.1786
9739,I4S4Sb4,1.347,59,6.313013,5.935088,15.73518,90.0,90.0,90.0
9740,Be4F16Rb8,6.6511,62,5.986622,7.808721,10.4303,90.0,90.0,90.0
9741,Mg2Sc4Se8,1.4152,227,8.005596,8.005596,8.005596,60.0,60.0,60.0
9742,Ba1O3Ti1,2.1494,160,4.058553,4.058553,4.058553,89.95217,89.95217,89.95217
9743,O10Pb4W2,3.103,12,7.789845,7.789845,7.522591,69.89306,69.89306,45.05728
9744,F3Ni1Tl1,2.8055,221,4.152463,4.152463,4.152463,90.0,90.0,90.0
9745,Al8O14Sr2,3.7426,15,8.021235,8.021235,5.600142,76.74199,76.74199,69.22419
9746,Br6K2Re1,2.1219,225,7.5639769999999995,7.5639769999999995,7.5639769999999995,60.0,60.0,60.0
9747,As1Ir1Ti1,0.5229,216,4.212631,4.212631,4.212631,60.0,60.0,60.0
9748,Se4Ta1Tl3,2.2639,217,6.969377,6.969377,6.969377,109.4712,109.4712,109.4712
9749,O3Pb1Ti1,2.1618,99,3.997095,3.997095,4.036099,90.0,90.0,90.0
9750,I2Li2O6,3.64,173,5.529875,5.529992,5.296405,90.0,90.0,120.0023
9751,C2Ca2O6,4.996,167,6.476727,6.476521,6.476762,45.71226,45.71087,45.70306
9752,Cl6K2Pd1,1.1208,225,7.023727,7.023727,7.023727,60.0,60.0,60.0
9753,Fe4K8O10,1.9954,14,6.038757,6.527221,10.14682,76.23319,90.0,90.0
9754,Ba4Be4F16,7.5513,62,5.412682,7.143145,8.972553,90.0,90.0,90.0
9755,Dy4S12Sc4,1.9919,62,6.42948,7.048246,9.634136,90.0,90.0,90.0
9756,Cr2Cu2O4,1.6367,194,3.045524,3.045524,11.44746,90.0,90.0,120.0041
9757,Al2Cu2O4,2.0144,194,2.8795539999999997,2.879536,11.38524,90.0,90.0,120.0002
9758,Ag6As2S6,1.4076,161,7.020089,7.020089,7.020089,102.8459,102.8459,102.8459
9759,F4N2P2,5.6226,36,5.284928,5.284928,4.988215,90.0,90.0,116.3767
9760,O3Sr1Ti1,2.2898,221,3.972803,3.972803,3.972803,90.0,90.0,90.0
9761,In1K2P1,0.4899,225,5.601875,5.601875,5.601875,60.0,60.0,60.0
9762,Ge1O3Zr1,1.3268,221,4.154462,4.154462,4.154462,90.0,90.0,90.0
9763,Ca8Cl12O2,5.2274,186,9.141562,9.141562,6.912557,90.0,90.0,119.9984
9764,Eu4Ge2Se8,1.1479,11,7.05089,7.060499,8.529376,72.06474,90.0,90.0
9765,Al2Cl14Se2,0.4329,1,9.918383,9.79954,6.593121,75.98004,77.83111,93.56841
9766,S8Y4Zn2,0.7464000000000001,227,7.773897,7.773897,7.773897,60.0,60.0,60.0
9767,Hf2Se6Tl4,0.6529,11,3.929624,8.237263,10.8707,82.68488,90.0,90.0
9768,Ca2O6Si2,3.7571,74,5.092734,5.092734,5.092734,119.8846,119.6698,90.38645
9769,Cl6Co2Cs2,3.3426,63,7.393457,7.393457,6.141481,90.0,90.0,119.9246
9770,Ag18O21Si6,0.7077,12,8.194215,8.194215,10.94605,76.58851,76.58851,74.55717
9771,Mn2O10Si4,3.555,15,5.222636,5.222636,6.659255,75.19942,75.19942,104.2482
9772,Cu2Ga2Se4,0.4136,122,6.890703,6.890703,6.890703,131.223,131.223,71.45896
9773,Na4Pd2S4,1.2723,36,5.502088,5.502088,10.926870000000001,90.0,90.0,142.0731
9774,La6O14Sb2,2.6712,63,6.855217,6.855217,7.885088,90.0,90.0,110.997
9775,Co8P8Se8,0.7397,61,5.6052029999999995,5.687496,11.23826,90.0,90.0,90.0
9776,Li8O16Te4,2.2707,91,6.133749,6.133749,8.462335,90.0,90.0,90.0
9777,Ni2Rh1Y1,0.0555,216,4.445577,4.445577,4.445577,60.0,60.0,60.0
9778,Ag1C2K1,2.7517,123,4.290015,4.290015,5.3808679999999995,90.0,90.0,90.0
9779,As1Co1O3,0.4179,221,3.6844770000000002,3.6844770000000002,3.6844770000000002,90.0,90.0,90.0
9780,Ag1As1Sr1,0.42250000000000004,216,4.908864,4.908864,4.908864,60.0,60.0,60.0
9781,C2Mn2O6,3.4556,167,5.992136,5.992136,5.992136,47.64876,47.64876,47.64876
9782,Cl2Na2O8,5.4438,63,4.874184,4.874184,7.175463,90.0,90.0,94.89849
9783,Na4O6S2,4.9711,147,5.523963,5.523912,6.212398,89.99798,89.99944,120.0056
9784,Cl4Hg6S4,1.924,199,7.970749,7.970749,7.970749,109.4712,109.4712,109.4712
9785,In2Rb2Te4,1.1509,140,7.406149,7.406149,7.406149,104.9522,104.9522,118.9453
9786,C1O4Rb4,1.4312,5,6.442189,6.442189,6.121356,66.73032,66.73032,55.24974
9787,Ir1Ta1Zn2,0.1041,216,4.411553,4.411553,4.411553,60.0,60.0,60.0
9788,F2I2Pb2,2.1697,129,4.233339,4.233339,9.643311,90.0,90.0,90.0
9789,Ba2Mo2O8,3.982,88,7.650675,7.650675,7.650675,136.3402,136.3402,63.45477
9790,Hg2O6Ti2,1.366,167,5.607917,5.607917,5.607917,58.47445,58.47445,58.47445
9791,Mn2Na14O9,0.9269000000000001,147,6.709822,6.709836,9.400446,90.00028,89.99964,120.0015
9792,Al1F3Mn1,2.0018,221,4.257509,4.257509,4.257509,90.0,90.0,90.0
9793,Cr1Na1S2,1.2810000000000001,166,6.8251919999999995,6.8251919999999995,6.8251919999999995,30.83077,30.83077,30.83077
9794,Cr5Se8Tl1,0.1384,12,9.808656,9.808656,9.184378,75.23014,75.23014,21.91793
9795,Na12Sb4Se12,1.9913,198,9.053193,9.053193,9.053193,90.0,90.0,90.0
9796,Al4Na14Sb10,0.2788,11,13.62419,7.753544,8.221882,61.992,90.0,90.0
9797,O3Sc1Y1,0.685,221,4.287724,4.287724,4.287724,90.0,90.0,90.0
9798,Ba1O3Ti1,2.1329000000000002,221,4.060049,4.060049,4.060049,90.0,90.0,90.0
9799,Al8Se16Tl8,1.6258,15,7.706562,7.706562,15.90969,82.95094,82.95094,90.01401
9800,Ca2O6Si2,3.5206,127,5.08994,5.08994,3.628771,90.0,90.0,90.0
9801,F6Mn1Rb2,3.2278000000000002,225,6.128154,6.128154,6.128154,60.0,60.0,60.0
9802,P4Ru1Si4,1.5808,1,6.3555209999999995,5.671392,4.970648,70.71585,65.14872,79.47102
9803,Au2K10P4,0.5224,194,5.693829,5.693896,18.92533,90.0,90.0,119.9996
9804,O7Si2Yb2,0.2857,5,5.568882,5.568882,4.726801,82.6576,82.6576,105.2723
9805,As1Co1Zr1,1.2313,216,4.103189,4.103189,4.103189,60.0,60.0,60.0
9806,Br4N4Zn8,2.1155,33,6.025095,6.157323,7.580672,90.0,90.0,90.0
9807,Cl10Fe2Tl6,2.7206,140,9.562505999999999,9.562505999999999,9.562505999999999,126.7593,126.7593,78.64368
9808,O28P8Zr4,4.4669,205,8.548734,8.554815,8.55119,90.0,90.0,90.0
9809,Ba4O16U4,3.0062,57,5.81113,8.307403,8.396098,90.0,90.0,90.0
9810,Ir1Li8O6,0.7244,148,5.947792,5.947792,5.947792,54.8405,54.8405,54.8405
9811,Ag1Cl1O4,3.64,121,4.95685,4.95685,4.95685,118.0987,118.0987,93.32592
9812,Cs2F6Hf1,7.2153,164,6.472876,6.472876,5.177866,90.00223,89.99777,120.007
9813,Bi8Cs12I36,2.3716,15,14.91415,8.616902,22.12125,92.69888,90.0,90.0
9814,F13K1Sb4,4.6802,82,7.655201,7.655201,7.655201,100.037,100.037,130.6497
9815,Br12Nb4Se4,2.3596,13,9.34678,9.511916,15.74167,83.92788,90.0,90.0
9816,Cs2F4H2,6.5153,140,5.926206,5.926206,5.926206,116.5322,116.5322,96.1193
9817,Mn8O32Pb16,0.754,114,13.1026,13.1026,5.24591,90.0,90.0,90.0
9818,I4S4Sb4,1.6332,62,4.122255,9.043483,10.78623,90.0,90.0,90.0
9819,Ba6O18Tc6,0.31470000000000004,194,5.891047,5.891034,14.58551,90.0,90.0,120.0001
9820,Mn4N8O24,2.7714,205,7.822656,7.822656,7.822656,90.0,90.0,90.0
9821,Li2O4Yb2,0.1177,141,5.84845,5.84845,5.84845,135.9637,135.9637,64.03652
9822,C2Na4O6,3.1681,194,5.258812,5.25902,6.385651,90.0,90.0,119.9987
9823,Nb1Sb1Ti2,0.0522,216,4.661749,4.661749,4.661749,60.0,60.0,60.0
9824,F3S1Sr1,0.5925,221,4.751723,4.751723,4.751723,90.0,90.0,90.0
9825,O24Sr12Tl8,0.7697,55,3.528873,12.0157,17.23344,90.0,90.0,90.0
9826,K2Li2Se2,2.511,129,4.525419,4.525419,7.342129,90.0,90.0,90.0
9827,B1Mn1Ti2,0.1422,216,4.04875,4.04875,4.04875,60.0,60.0,60.0
9828,Cs2Sb4Se8,1.1106,2,7.163879,10.01942,6.862379,87.1613,74.89247,80.19377
9829,Cu1O3Ta1,1.2577,221,3.975062,3.975062,3.975062,90.0,90.0,90.0
9830,Ag24O16Sr4,0.9525,52,6.656033,9.061693,12.62968,90.0,90.0,90.0
9831,Hf1Os2Sn1,0.30920000000000003,225,4.58078,4.58078,4.58078,60.0,60.0,60.0
9832,Au2Cs2I6,0.6445000000000001,139,8.57992,8.57992,8.57992,121.3143,121.3143,87.73825
9833,Ce2O8Zr2,2.4032999999999998,125,5.315719,5.420519,5.421498,90.0,90.0,90.0
9834,O72P12Re12,2.2148,15,8.569531,8.569531,21.19235,88.44958,88.44958,61.1004
9835,Al6O54P18,5.5174,165,11.08907,11.08907,9.32346,90.00003,89.99997,120.0004
9836,Hg4Nb4O14,0.5345,227,7.508303,7.508303,7.508303,60.0,60.0,60.0
9837,B6O13Zn4,4.0422,217,6.463789,6.463789,6.463789,109.4712,109.4712,109.4712
9838,Rb4Se6Sn2,1.4947,2,7.31358,8.170566,9.191642,74.92768,71.51644,66.1581
9839,Al6O24P6,5.4443,5,8.810196,8.810196,13.86619,88.71467,88.71467,34.76068
9840,S10Sn2Tb4,0.0621,55,3.846262,7.777076,11.47781,90.0,90.0,90.0
9841,Br1N1Sr2,1.8516,166,7.739612,7.739612,7.739612,29.64374,29.64374,29.64374
9842,O18P4U4,3.1594,64,5.82394,5.82394,12.85191,90.0,90.0,103.9635
9843,Cd1Mo2Zr1,0.0339,216,4.697025,4.697025,4.697025,60.0,60.0,60.0
9844,Cu1O2Pr1,2.8179,166,6.162347,6.162347,6.162347,35.7429,35.7429,35.7429
9845,Al2O6Pr2,3.9175,167,5.366524,5.366524,5.366524,60.26418,60.26418,60.26418
9846,Cd12K8Se16,1.4777,62,6.970873,10.7889,14.48438,90.0,90.0,90.0