,full_formula,DebyeTemp,spacegroup.number,structure.lattice.a,structure.lattice.b,structure.lattice.c,structure.lattice.alpha,structure.lattice.beta,structure.lattice.gamma
1999,Se12Tb8,241.893,62,4.050111,11.00359,11.21751,90.0,90.0,90.0
2000,S1Th1,210.187,225,4.149929,4.149929,4.149929,60.0,60.0,60.0
2001,C4H4,1599.75,199,3.741788,3.741788,3.741788,109.4712,109.4712,109.4712
2002,C1Cr1,667.452,225,2.878923,2.878923,2.878923,60.0,60.0,60.0
2003,Ni1Zn1,376.231,221,2.839717,2.839717,2.839717,90.0,90.0,90.0
2004,Ho3Sn7,206.411,65,13.51902,13.51902,4.538677,90.0,90.0,161.1334
2005,Ho4Os8,210.113,194,5.260482,5.260482,8.960141,90.0,90.0,119.999
2006,Pt4Yb2,224.642,227,5.430395,5.430395,5.430395,60.0,60.0,60.0
2007,Hg1Te1,130.071,216,4.697272,4.697272,4.697272,60.0,60.0,60.0
2008,C1Cr1,957.244,187,2.714693,2.714693,2.6381769999999998,90.0,90.0,120.0008
2009,Ge1Mg2,440.37,225,4.526711,4.526711,4.526711,60.0,60.0,60.0
2010,As1Sc1,392.46,225,3.929387,3.929387,3.929387,60.0,60.0,60.0
2011,Eu1F2,282.002,225,4.171004,4.171004,4.171004,60.0,60.0,60.0
2012,Ga1Sb1,247.634,216,4.381008,4.381008,4.381008,60.0,60.0,60.0
2013,Be1S1,778.256,225,3.274937,3.274937,3.274937,60.0,60.0,60.0
2014,Hf1Rh3,385.893,221,3.926434,3.926434,3.926434,90.0,90.0,90.0
2015,O24Si12,506.521,195,8.793681,8.793681,8.793681,90.0,90.0,90.0
2016,Cs1H1,146.186,225,4.52547,4.52547,4.52547,60.0,60.0,60.0
2017,In4K1,166.845,139,7.324584,7.324584,7.324584,140.8132,140.8132,56.62058
2018,Al8Zr4,546.535,194,5.304291,5.304264,8.773264,90.0,90.0,120.0002
2019,Ru1Sc1,338.412,221,3.248349,3.248349,3.248349,90.0,90.0,90.0
2020,Cd4P8,294.952,33,5.237893,5.463974,10.01102,90.0,90.0,90.0
2021,Er1Rh5,335.208,191,5.166318,5.165739,4.332638,90.0,90.0,120.0037
2022,Be26Pa2,837.119,226,7.214992,7.214992,7.214992,60.0,60.0,60.0
2023,Be1O1,1177.97,225,2.5797179999999997,2.5797179999999997,2.5797179999999997,60.0,60.0,60.0
2024,Ir6Zr10,242.709,193,8.043058,8.043058,5.53242,90.0,90.0,120.0002
2025,O6W2,501.983,129,5.39411,5.39411,3.965516,90.0,90.0,90.0
2026,N2V2,825.064,194,2.884584,2.884584,5.2185,90.0,90.0,120.0009
2027,La1Pd5,259.608,191,5.3782,5.3782,4.502197,90.0,90.0,120.0003
2028,Al3Hf1,464.852,139,5.264378,5.264378,5.264378,136.0672,136.0672,63.87643
2029,Cu2O2,294.601,15,2.940305,2.940305,5.153669,89.66285,89.66285,89.13641
2030,As8Zr4,392.218,62,3.725071,6.859638,9.140348,90.0,90.0,90.0
2031,Ca1Sn3,218.751,221,4.829719,4.829719,4.829719,90.0,90.0,90.0
2032,Sb1Y1,255.246,225,4.392091,4.392091,4.392091,60.0,60.0,60.0
2033,Er4Os8,210.997,194,5.258591,5.258591,8.932707,90.0,90.0,119.9986
2034,Ir4Te8,259.287,205,6.511886,6.511886,6.511886,90.0,90.0,90.0
2035,B6Y1,635.314,221,4.100612,4.100612,4.100612,90.0,90.0,90.0
2036,Bi1Y1,204.201,225,4.4787289999999995,4.4787289999999995,4.4787289999999995,60.0,60.0,60.0
2037,Cr2P8,668.593,15,5.999817,5.999817,5.769617,81.10137,81.10137,128.4546
2038,Pt4Tb2,254.359,227,5.413541,5.413541,5.413541,60.0,60.0,60.0
2039,O4Pb2,300.171,136,5.078549,5.078549,3.448142,90.0,90.0,90.0
2040,F4Mg2,588.24,58,3.093996,4.667041,4.714795,90.0,90.0,90.0
2041,Sb4Ta5,205.594,87,7.595715,7.595715,7.595715,92.89312,92.89312,154.034
2042,C4Ti8,543.627,227,6.198067,6.198067,6.198067,60.0,60.0,60.0
2043,Co1Hf1,323.779,221,3.219948,3.219948,3.219948,90.0,90.0,90.0
2044,I1K1,120.237,225,5.073133,5.073133,5.073133,60.0,60.0,60.0
2045,Co4Sb12,311.859,204,7.871393,7.871393,7.871393,109.4712,109.4712,109.4712
2046,La8Rh6,176.337,220,7.857589,7.857589,7.857589,109.4712,109.4712,109.4712
2047,Br1Tl1,107.15,221,4.036794,4.036794,4.036794,90.0,90.0,90.0
2048,Cd1F2,295.108,225,3.870359,3.870359,3.870359,60.0,60.0,60.0
2049,Ca24N16,441.387,206,9.937572,9.937572,9.937572,109.4712,109.4712,109.4712
2050,N2Nb2,355.632,186,3.19384,3.19395,6.049891,90.0,90.0,120.0011
2051,Ba1Ga4,260.277,139,6.332728,6.332728,6.332728,137.3582,137.3582,61.88733
2052,Bi4O6,189.174,224,5.5954180000000004,5.5954180000000004,5.5954180000000004,90.0,90.0,90.0
2053,Cu36In16,286.884,215,9.1884,9.1884,9.1884,90.0,90.0,90.0
2054,Mn1V1,626.759,221,2.900772,2.900772,2.900772,90.0,90.0,90.0
2055,Be4Ti2,844.944,227,4.607391,4.607391,4.607391,60.0,60.0,60.0
2056,Ru4Tb10,187.695,15,8.545392,8.545392,7.255674,83.05542,83.05542,43.75173
2057,P1Yb1,181.101,225,4.04072,4.04072,4.04072,60.0,60.0,60.0
2058,Pd4Tb4,188.076,62,4.6104400000000005,5.56617,6.98718,90.0,90.0,90.0
2059,Hg1Tb1,136.58,221,3.735003,3.735003,3.735003,90.0,90.0,90.0
2060,Hg6Mg10,221.469,193,8.306914,8.30624,5.937993,90.0,90.0,120.0027
2061,Dy1Te1,174.02,225,4.352952,4.352952,4.352952,60.0,60.0,60.0
2062,Co8Ti16,395.472,227,8.021808,8.021808,8.021808,60.0,60.0,60.0
2063,Hf10Si6,349.358,193,7.891319,7.891313,5.502496,90.0,90.0,120.0
2064,Be4O4,1157.59,136,4.641756,4.641756,2.6993039999999997,90.0,90.0,90.0
2065,Mg1Rh1,382.497,221,3.096249,3.096249,3.096249,90.0,90.0,90.0
2066,Os8Y4,235.37,194,5.279017,5.278935,8.990323,90.0,90.0,120.0005
2067,Cr2O6,223.102,40,5.349518,5.349518,5.791192,90.0,90.0,122.6148
2068,Ge4Rh4,303.367,198,4.917672,4.917672,4.917672,90.0,90.0,90.0
2069,Br32Ti8,44.9116,205,12.12582,12.12582,12.12582,90.0,90.0,90.0
2070,O8Re4,541.991,60,4.642257,4.902008,5.705478,90.0,90.0,90.0
2071,Er14Rh6,171.24,186,9.687911,9.687911,6.075026,90.0,90.0,120.0001
2072,O4V2,775.406,136,4.514308,4.514308,3.029512,90.0,90.0,90.0
2073,Rb4S2,136.762,194,5.573115,5.573115,7.687803,90.0,90.0,120.0
2074,La6Sn8,220.401,63,6.474488,6.474488,16.21397,90.0,90.0,138.3693
2075,Al8O12,969.492,60,4.845528,4.984476,7.089389,90.0,90.0,90.0
2076,La4Sb8,197.389,64,4.477676,4.477676,18.83008,90.0,90.0,91.29611
2077,Au1Ti1,239.085,221,3.343392,3.343392,3.343392,90.0,90.0,90.0
2078,As12Co4,437.74,204,7.144364,7.144364,7.144364,109.4712,109.4712,109.4712
2079,C18Si18,1143.68,156,3.093912,3.093901,45.56547,90.00004,90.0,120.0001
2080,Au3Li1,132.135,221,4.06674,4.06674,4.06674,90.0,90.0,90.0
2081,Mn1Se1,309.448,225,3.916172,3.916172,3.916172,60.0,60.0,60.0
2082,Ba1O1,292.411,225,3.969401,3.969401,3.969401,60.0,60.0,60.0
2083,Pt1Sn2,171.591,225,4.6686700000000005,4.6686700000000005,4.6686700000000005,60.0,60.0,60.0
2084,Cu1Ho1,229.358,221,3.456552,3.456552,3.456552,90.0,90.0,90.0
2085,Al12Mo4,590.752,12,8.441718999999999,8.441718999999999,8.419602,78.45114,78.45114,24.69479
2086,Si6V10,628.583,140,7.101858,7.101858,7.101858,96.43054,96.43054,140.896
2087,Mn1O1,506.327,225,3.194381,3.194381,3.194381,60.0,60.0,60.0
2088,Dy1Mg1,215.1,221,3.784,3.784,3.784,90.0,90.0,90.0
2089,Li1Pd1,289.1,221,2.980167,2.980167,2.980167,90.0,90.0,90.0
2090,Te1Yb1,180.895,225,4.551773,4.551773,4.551773,60.0,60.0,60.0
2091,Be5Pt1,714.741,216,4.22021,4.22021,4.22021,60.0,60.0,60.0
2092,Os8Y4,236.038,194,5.278534,5.278159,8.993169,90.0,90.0,120.0024
2093,Al1La3,173.924,221,5.042743,5.042743,5.042743,90.0,90.0,90.0
2094,In2N2,370.373,186,3.5642,3.5642,5.766287,90.0,90.0,119.9956
2095,Sr1Te1,200.654,225,4.756248,4.756248,4.756248,60.0,60.0,60.0
2096,Au2Th2,144.206,63,6.326435,6.326435,4.685032,90.0,90.0,144.0883
2097,Si4Ti2,675.342,70,6.017509,4.9605239999999995,4.8378820000000005,75.76614000000001,53.03863,51.19524
2098,Ag8S4,166.163,19,4.258426,6.952773,7.719338,90.0,90.0,90.0
2099,P4Zr4,473.78,194,3.710981,3.710981,12.61811,90.0,90.0,120.0001
2100,Er1Tl1,124.873,221,3.767032,3.767032,3.767032,90.0,90.0,90.0
2101,Mn8Sc4,339.588,194,5.714663,5.711476,9.093948,90.0,90.0,120.0185
2102,Mg8Sr4,273.006,194,6.458791,6.458791,10.3977,90.0,90.0,120.0057
2103,In2P2,288.988,186,4.194199,4.194199,6.883253,90.0,90.0,119.9928
2104,Ga9Rb3,245.517,119,8.830742,8.830742,8.830742,137.5175,137.5175,61.64273
2105,Ho16O24,369.692,206,9.187657,9.187657,9.187657,109.4712,109.4712,109.4712
2106,Ir2Mo2,419.305,51,2.769419,4.454822,4.836659,90.0,90.0,90.0
2107,As1Tl1,165.26,216,4.486917,4.486917,4.486917,60.0,60.0,60.0
2108,Au16Hf4,188.219,62,4.902468,5.0783760000000004,14.43456,90.0,90.0,90.0
2109,Ga4Zr6,374.13,127,7.369203,7.369203,3.697865,90.0,90.0,90.0
2110,Ru3U1,351.432,221,4.007073,4.007073,4.007073,90.0,90.0,90.0
2111,C6Sc8,560.641,220,6.35953,6.35953,6.35953,109.4712,109.4712,109.4712
2112,Ho1Tl1,127.467,221,3.776528,3.776528,3.776528,90.0,90.0,90.0
2113,Ag1Ti2,360.329,139,6.3147,6.3147,6.3147,152.2442,152.2442,39.65676
2114,B3N3,903.99,160,2.512512,2.512512,12.1632,89.99926,90.00074,120.0003
2115,N1Zr1,454.127,216,3.529425,3.529425,3.529425,60.0,60.0,60.0
2116,Cd2Hf2,204.272,129,3.078549,3.078549,9.173673,90.0,90.0,90.0
2117,Mo1Pt2,349.222,71,4.812224,4.812224,4.812224,146.4571,131.4951,60.26238
2118,C8Cr12,766.139,62,2.791317,5.489039,11.4851,90.0,90.0,90.0
2119,Fe3Ge3,311.374,191,5.199618,5.192993,4.298014,90.0,90.0,120.0422
2120,Ru4Se8,416.454,205,6.0213,6.0213,6.0213,90.0,90.0,90.0
2121,Ag2Tb1,177.947,139,5.408711,5.408711,5.408711,139.5266,139.5266,58.57275
2122,Au2Dy1,185.814,139,5.231546,5.231546,5.231546,138.2037,138.2037,60.5912
2123,In1Te1,170.103,225,4.431126,4.431126,4.431126,60.0,60.0,60.0
2124,Cd1Hf2,203.845,139,6.565898,6.565898,6.565898,151.1117,151.1117,41.31191
2125,Li1Pt7,259.004,225,5.53297,5.53297,5.53297,60.0,60.0,60.0
2126,Ga2N2,606.043,186,3.206096,3.206068,5.216353,90.0,90.0,120.0003
2127,Hf6In8,225.625,127,10.2782,10.2782,3.114768,90.0,90.0,90.0
2128,Ba1Se1,180.874,221,4.014917,4.014917,4.014917,90.0,90.0,90.0
2129,Nb6Se8,284.284,176,10.11861,10.1181,3.505769,90.0,90.0,119.9979
2130,Ca2Ni4,342.503,227,5.070077,5.070077,5.070077,60.0,60.0,60.0
2131,Dy1Se1,206.802,225,4.074513,4.074513,4.074513,60.0,60.0,60.0
2132,K8Te12,130.178,62,4.645414,10.3936,15.99545,90.0,90.0,90.0
2133,Li3N1,753.375,191,3.650912,3.6507300000000003,3.888829,90.0,90.0,120.0017
2134,Cd26Cs2,201.896,226,9.968785,9.968785,9.968785,60.0,60.0,60.0
2135,N1Zr1,652.089,225,3.265533,3.265533,3.265533,60.0,60.0,60.0
2136,B6Pu1,556.265,221,4.107057,4.107057,4.107057,90.0,90.0,90.0
2137,Ca5P8,444.4,12,6.895284,6.895284,7.509557,80.97868,80.97868,119.6651
2138,Cl1Na1,289.291,225,4.011026,4.011026,4.011026,60.0,60.0,60.0
2139,Sn4Th2,218.444,63,9.066321,9.066321,4.497983,90.0,90.0,150.8228
2140,Nb1Pd2,344.203,71,4.8772459999999995,4.8772459999999995,4.8772459999999995,145.6327,132.8983,59.59325
2141,B6Er1,496.954,221,4.084847,4.084847,4.084847,90.0,90.0,90.0
2142,As12Ir4,374.303,204,7.417388,7.417388,7.417388,109.4712,109.4712,109.4712
2143,Rh8Sb4,275.903,62,4.152368,5.839579,7.991329,90.0,90.0,90.0
2144,H2Zr1,329.787,139,3.33727,3.33727,3.33727,116.1131,116.1131,96.87541
2145,Ag4Ba4,138.303,62,5.051051,6.7605900000000005,8.780067,90.0,90.0,90.0
2146,Mo2Pt2,380.653,51,2.744634,4.499553,4.979265,90.0,90.0,90.0
2147,Ru4Sb4,327.663,62,3.613064,6.122726,6.751341,90.0,90.0,90.0
2148,Ru3Zr1,320.249,221,3.9822759999999997,3.9822759999999997,3.9822759999999997,90.0,90.0,90.0
2149,Sn3Yb1,187.63,221,4.810621,4.810621,4.810621,90.0,90.0,90.0
2150,Ir1Nb1,329.466,123,2.8766,2.8766,3.871254,90.0,90.0,90.0
2151,As12Co4,437.394,204,7.144648,7.144648,7.144648,109.4712,109.4712,109.4712
2152,Cr2O4,712.495,136,4.4871300000000005,4.4871300000000005,2.978319,90.0,90.0,90.0
2153,Al1As1,376.548,216,4.054017,4.054017,4.054017,60.0,60.0,60.0
2154,C1Y1,230.571,216,3.864052,3.864052,3.864052,60.0,60.0,60.0
2155,P4Ru4,476.626,62,3.181013,5.563384,6.164188,90.0,90.0,90.0
2156,Cu1I1,168.335,216,4.304802,4.304802,4.304802,60.0,60.0,60.0
2157,Mg2Rh1,373.974,139,5.509601,5.509601,5.509601,146.402,146.402,48.25005
2158,H1Pd1,305.043,225,2.8987879999999997,2.8987879999999997,2.8987879999999997,60.0,60.0,60.0
2159,Ga4Sc2,353.029,74,5.611243,5.611243,5.611243,136.3333,107.1319,88.972
2160,C1Ta1,548.532,225,3.185999,3.185999,3.185999,60.0,60.0,60.0
2161,Br32Si8,48.1599,205,12.07649,12.07649,12.07649,90.0,90.0,90.0
2162,Li2O1,956.253,225,3.290364,3.290364,3.290364,60.0,60.0,60.0
2163,O8Zr4,552.519,14,5.283601,5.218154,5.402093,80.35413,90.0,90.0
2164,Ca3Hg1,156.025,221,5.103479,5.103479,5.103479,90.0,90.0,90.0
2165,O8Si4,592.255,92,5.088886,5.088886,7.109212,90.0,90.0,90.0
2166,Pt4Y12,160.866,62,6.501116,7.041627,9.651789,90.0,90.0,90.0
2167,Ag1Er1,194.442,221,3.609488,3.609488,3.609488,90.0,90.0,90.0
2168,Bi1Na1,154.981,123,3.431413,3.431413,4.884504,90.0,90.0,90.0
2169,C3W6,425.263,162,5.276583,5.276591,4.8028379999999995,90.0002,90.0,120.0
2170,B2Tc2,702.911,194,2.879513,2.879513,5.95357,90.0,90.0,120.0007
2171,N3Nb4,607.323,139,5.34972,5.34972,5.34972,131.1561,131.1561,71.56518
2172,Ca2Si1,333.224,225,5.065174,5.065174,5.065174,60.0,60.0,60.0
2173,Au4Er8,148.511,62,4.927908,7.018874,8.847546,90.0,90.0,90.0
2174,F4Ni2,434.258,58,3.11054,4.649666,4.762626,90.0,90.0,90.0
2175,Ge4La4,267.475,63,7.325212,7.325212,6.816446,90.0,90.0,143.4272
2176,As12Co4,438.158,204,7.143876,7.143876,7.143876,109.4712,109.4712,109.4712
2177,Au2Th1,180.949,191,4.862484,4.862366,3.508806,90.0,90.0,120.0008
2178,O4Pt2,417.601,136,4.593894,4.593894,3.195847,90.0,90.0,90.0
2179,O24Y16,468.562,206,9.267951,9.267951,9.267951,109.4712,109.4712,109.4712
2180,Al4Pt8,258.629,62,4.076898,5.443685,7.90446,90.0,90.0,90.0
2181,Al3Dy1,372.345,139,5.451651,5.451651,5.451651,134.7947,134.7947,65.84936
2182,Ir4P12,511.23,204,6.978968,6.978968,6.978968,109.4712,109.4712,109.4712
2183,Al8Zr10,357.492,193,8.462713,8.462713,5.797232,90.0,90.0,119.9994
2184,O12Sb8,173.1,227,8.109266,8.109266,8.109266,60.0,60.0,60.0
2185,Ce1Zn1,230.45,221,3.580375,3.580375,3.580375,90.0,90.0,90.0
2186,Cl1K1,222.211,221,3.820249,3.820249,3.820249,90.0,90.0,90.0
2187,Al1Zr3,365.433,221,4.382762,4.382762,4.382762,90.0,90.0,90.0
2188,O24Tl16,236.641,206,9.322735,9.322735,9.322735,109.4712,109.4712,109.4712
2189,P1Tl1,203.432,216,4.322734,4.322734,4.322734,60.0,60.0,60.0
2190,Ag2I2,96.0549,186,4.6984770000000005,4.6984770000000005,7.688515,90.0,90.0,119.9942
2191,Ir5Sn7,244.644,107,6.975694,6.975694,6.975694,102.8048,102.8048,123.8307
2192,Te1U1,150.877,225,4.5369019999999995,4.5369019999999995,4.5369019999999995,60.0,60.0,60.0
2193,N4Nb4,585.488,194,2.99983,2.999834,11.33289,90.0,90.0,120.0
2194,In3Pd2,243.335,164,4.584954,4.584949,5.57784,89.99977,90.00028,120.0015
2195,Al8Dy12,232.363,136,8.240802,8.240802,7.586639,90.0,90.0,90.0
2196,N1Tl1,267.336,225,3.504852,3.504852,3.504852,60.0,60.0,60.0
2197,Hg1Se1,136.373,225,4.098003,4.098003,4.098003,60.0,60.0,60.0
2198,H8Mg4,777.96,205,4.788572,4.788572,4.788572,90.0,90.0,90.0
2199,Dy8S12,286.987,62,3.888283,7.307691,15.19421,90.0,90.0,90.0
2200,Cu1Zr2,309.526,139,6.07069,6.07069,6.07069,149.1144,149.1144,44.24301
2201,Au2Zr6,249.125,223,5.531407,5.531407,5.531407,90.0,90.0,90.0
2202,Rh8Sn4,291.874,62,4.302548,5.617727,8.110281,90.0,90.0,90.0
2203,Au2Tb1,181.861,139,5.245012,5.245012,5.245012,138.1567,138.1567,60.66308
2204,Be26Sr2,1047.03,226,7.351792,7.351792,7.351792,60.0,60.0,60.0
2205,Cd2La1,183.4,191,5.173363,5.173363,3.552747,90.1056,89.8944,119.9945
2206,Cd4Sr2,162.079,74,6.422095,6.422095,6.422095,132.8443,102.1347,96.30268
2207,O6Re2,518.548,182,4.922644,4.922598,4.512284,90.0,90.0,120.0003
2208,Cd33La3,208.554,221,9.444185,9.444185,9.444185,90.0,90.0,90.0
2209,O2Tl4,116.146,166,13.40899,13.40899,13.40899,15.52795,15.52795,15.52795
2210,Rh1Tb1,220.395,221,3.426722,3.426722,3.426722,90.0,90.0,90.0
2211,Mg3Tb1,292.483,225,5.173916,5.173916,5.173916,60.0,60.0,60.0
2212,Rh5Tb1,335.303,191,5.19074,5.190611,4.3326,90.0,90.0,120.0008
2213,Nb6Te2,371.741,223,5.310521,5.310521,5.310521,90.0,90.0,90.0
2214,S1Ti1,596.532,187,3.315725,3.315725,3.264923,90.0,90.0,120.0019
2215,Al4Pt12,269.704,127,5.481608,5.481608,7.872485,90.0,90.0,90.0
2216,O4Rh2,581.014,136,4.573893,4.573893,3.135219,90.0,90.0,90.0
2217,B6Th1,591.986,221,4.158415,4.158415,4.158415,90.0,90.0,90.0
2218,Co4Sb12,311.785,204,7.871426,7.871426,7.871426,109.4712,109.4712,109.4712
2219,Mo2Rh2,393.957,51,2.7531280000000002,4.443053,4.852251,90.0,90.0,90.0
2220,Bi1Li1,132.386,123,3.356238,3.356238,4.235917,90.0,90.0,90.0
2221,C2Tb1,321.944,139,4.070062,4.070062,4.070062,126.0528,126.0528,79.80144
2222,Cd2S2,213.218,186,4.18998,4.18998,6.806096,90.0,90.0,119.9948
2223,H2Th1,179.641,139,3.868244,3.868244,3.868244,114.5128,114.5128,99.79979
2224,Pb3Rh3,240.066,191,5.741715,5.741715,4.479877,90.0,90.0,119.9985
2225,Cu1Zn1,274.878,221,2.937538,2.937538,2.937538,90.0,90.0,90.0
2226,Ru4Te8,335.115,205,6.47775,6.47775,6.47775,90.0,90.0,90.0
2227,Ho2Te4,174.263,129,4.440019,4.440019,8.844903,90.0,90.0,90.0
2228,In1Pt3,213.463,221,4.016715,4.016715,4.016715,90.0,90.0,90.0
2229,Mo6Os2,373.246,223,5.011885,5.011885,5.011885,90.0,90.0,90.0
2230,B4V3,1023.22,71,6.978384,6.978384,6.978384,155.219,154.5496,35.81858
2231,Ca24N16,442.0,206,9.939619,9.939619,9.939619,109.4712,109.4712,109.4712
2232,Ca10Sb6,271.047,193,9.083919,9.083919,6.986819,90.0,90.0,119.9999
2233,Ge14Ir6,356.734,229,7.57288,7.57288,7.57288,109.4712,109.4712,109.4712
2234,H8Mg4,678.721,62,3.100753,5.271156,5.964517,90.0,90.0,90.0
2235,Au2Be1,190.752,139,5.5408290000000004,5.5408290000000004,5.5408290000000004,149.4807,149.4807,43.70425
2236,Ho1Sn3,122.573,221,4.761322,4.761322,4.761322,90.0,90.0,90.0
2237,N1Ta1,359.464,225,3.144527,3.144527,3.144527,60.0,60.0,60.0
2238,Dy1Rh5,335.316,191,5.188483,5.188483,4.330383,90.0,90.0,119.9992
2239,Mo3Ti1,402.468,71,5.3216719999999995,5.3216719999999995,5.3216719999999995,144.9158,130.3391,62.2497
2240,Ir8Sc16,242.343,227,8.802264,8.802264,8.802264,60.0,60.0,60.0
2241,Ir2Nb6,381.95,223,5.179407,5.179407,5.179407,90.0,90.0,90.0
2242,Cd1Te1,151.596,216,4.667933,4.667933,4.667933,60.0,60.0,60.0
2243,Co1Nb1,415.869,221,3.129069,3.129069,3.129069,90.0,90.0,90.0
2244,Si10Sr10,319.122,71,11.35756,11.35756,11.35756,155.5329,110.5972,74.81155
2245,La2N2,228.184,186,4.206177,4.206177,5.925533,90.0,90.0,120.0113
2246,Be1O1,1228.61,216,2.703707,2.703707,2.703707,60.0,60.0,60.0
2247,Pt3Tb1,237.325,221,4.103769,4.103769,4.103769,90.0,90.0,90.0
2248,Sb1U1,161.472,225,4.569877,4.569877,4.569877,60.0,60.0,60.0
2249,Ca4H8,593.396,62,3.562162,5.882378,6.7530339999999995,90.0,90.0,90.0
2250,B12Dy1,1099.86,225,5.298591,5.298591,5.298591,60.0,60.0,60.0
2251,Mn8Sc4,342.598,194,5.68907,5.68907,9.100777,90.0,90.0,120.0039
2252,Pb1Te1,174.518,225,4.636581,4.636581,4.636581,60.0,60.0,60.0
2253,Dy1Rh1,226.7,221,3.410159,3.410159,3.410159,90.0,90.0,90.0
2254,N1Tl1,235.389,216,3.727868,3.727868,3.727868,60.0,60.0,60.0
2255,O12W4,329.654,14,5.381379,5.400038,7.869328,89.74512,90.0,90.0
2256,B4Ru2,754.233,59,2.868976,4.059184,4.650829,90.0,90.0,90.0
2257,C1Nb1,744.884,225,3.183416,3.183416,3.183416,60.0,60.0,60.0
2258,In3La1,215.982,221,4.779278,4.779278,4.779278,90.0,90.0,90.0
2259,Al4Tb2,374.603,227,5.579491,5.579491,5.579491,60.0,60.0,60.0
2260,B12Y1,1268.53,225,5.301408,5.301408,5.301408,60.0,60.0,60.0
2261,C19Si19,1142.59,156,3.094006,3.094008,48.09276,89.99999,90.0,120.0
2262,Pu1S1,239.94,225,3.9620759999999997,3.9620759999999997,3.9620759999999997,60.0,60.0,60.0
2263,Al2Hf4,268.876,140,5.497281,5.497281,5.497281,103.1494,103.1494,123.0259
2264,Cs8Te20,104.977,63,9.69636,12.3565,10.33348,90.0,90.0,90.0
2265,N8Zr6,596.253,220,5.896269,5.896269,5.896269,109.4712,109.4712,109.4712
2266,C1Ti1,915.355,225,3.115853,3.115853,3.115853,60.0,60.0,60.0
2267,Al3V1,682.126,139,4.940467,4.940467,4.940467,135.0751,135.0751,65.41352
2268,C4Re2,616.571,194,2.884304,2.8843129999999997,8.123382,90.0,90.0,119.9999
2269,N2Re2,437.975,131,2.720265,2.720265,6.225145,90.0,90.0,90.0
2270,Pt5Pu1,261.777,216,5.241539,5.241539,5.241539,60.0,60.0,60.0
2271,Ag2Br2,147.395,11,4.117781,4.130977,5.836208,90.51014,90.0,90.0
2272,F1K1,308.64,225,3.831939,3.831939,3.831939,60.0,60.0,60.0
2273,P8Sc12,491.732,62,3.814433,7.121291,14.64173,90.0,90.0,90.0
2274,B2N2,947.885,194,2.512399,2.512399,7.383064,90.0,90.0,120.0142
2275,Au4P6,231.821,12,7.886796,7.886796,4.750097,83.42762,83.42762,135.7106
2276,Be2Si1,695.312,225,3.737313,3.737313,3.737313,60.0,60.0,60.0
2277,Ge4Zr4,385.359,62,3.936726,5.436857,7.127651,90.0,90.0,90.0
2278,Pd2Y2,226.674,63,5.598786,5.598786,4.572743,90.0,90.0,141.0735
2279,F2Sr1,323.956,225,4.142915,4.142915,4.142915,60.0,60.0,60.0
2280,Sb4Zr4,314.093,198,5.691324,5.691324,5.691324,90.0,90.0,90.0
2281,Bi1U1,155.135,225,4.655228,4.655228,4.655228,60.0,60.0,60.0