,full_formula,band_gap,spacegroup.number,structure.lattice.a,structure.lattice.b,structure.lattice.c,structure.lattice.alpha,structure.lattice.beta,structure.lattice.gamma
1403,In16O24,1.1161,206,8.866677,8.866677,8.866677,109.4712,109.4712,109.4712
1404,S20Zn20,2.6828000000000003,156,3.798364,3.798352,62.06926,90.00001,90.0,120.0001
1405,Cr2F6,2.733,167,5.371855,5.371855,5.371855,56.18471,56.18471,56.18471
1406,Fe4Ga12,0.5416000000000001,136,6.23185,6.23185,6.481641,90.0,90.0,90.0
1407,Al4C3,1.3189,166,8.598185,8.598185,8.598185,22.49706,22.49706,22.49706
1408,Ca1F2,7.1318,225,3.897049,3.897049,3.897049,60.0,60.0,60.0
1409,O4Si2,5.001,136,4.232668,4.232668,2.694037,90.0,90.0,90.0
1410,Pt8S8,0.6225,84,6.488064,6.488064,6.659156,90.0,90.0,90.0
1411,O4Si2,5.0094,136,4.231684,4.231684,2.693469,90.0,90.0,90.0
1412,Ga12Os4,0.6497,136,6.53592,6.53592,6.786566,90.0,90.0,90.0
1413,S14Zn14,2.6896,156,3.798662,3.798704,43.46887,89.99999,90.0,119.9996
1414,Cl8Cu8,1.0221,205,6.58868,6.58868,6.58868,90.0,90.0,90.0
1415,Al16O24,4.8309,33,4.885194,8.395697,9.025642,90.0,90.0,90.0
1416,O6W2,0.7384000000000001,129,5.388277,5.388277,3.985223,90.0,90.0,90.0
1417,C12N16,3.7720000000000002,159,6.510845,6.510845,4.743253,90.00001,90.00001,120.0001
1418,Bi8S12,1.3728,62,4.022006,11.18929,11.69371,90.0,90.0,90.0
1419,O10Ta4,0.43420000000000003,47,3.713231,6.547297,7.807574,90.0,90.0,90.0
1420,As6Ge6,0.1956,12,8.156988,8.156988,9.64147,79.09473,79.09473,27.3215
1421,P12Sr4,0.37110000000000004,12,6.866081,6.866081,8.633679,78.59674,78.59674,65.75487
1422,Al4C3,1.3207,166,8.594528,8.594528,8.594528,22.49864,22.49864,22.49864
1423,Se1Zn1,1.6951,216,4.011418,4.011418,4.011418,60.0,60.0,60.0
1424,O48Si24,4.3006,206,10.46834,10.46834,10.46834,109.4712,109.4712,109.4712
1425,N8Si6,4.244,176,7.660259,7.660244,2.925352,90.0,90.0,119.9986
1426,P12Ru3,1.3632,2,7.580323,7.206571,4.757694,100.48,90.38135,111.1231
1427,La8S12,0.9252,62,4.18354,7.675786,16.042,90.0,90.0,90.0
1428,F2Xe1,2.7024,139,4.825666,4.825666,4.825666,124.2929,124.2929,82.71261
1429,Mo4O12,1.8295,62,3.731669,3.953227,15.01745,90.0,90.0,90.0
1430,Cd8I16,2.3879,186,4.313914,4.313889,58.09599,90.0,90.0,120.0002
1431,F18La6,7.7034,165,7.2975,7.297498,7.466326,89.99981,90.00019,120.0015
1432,O4Si2,5.0122,136,4.233359,4.233359,2.692773,90.0,90.0,90.0
1433,Pt1S2,1.2524,164,3.568041,3.568041,5.696797,89.99545,90.00455,119.999
1434,Cu1I1,1.645,216,4.309306,4.309306,4.309306,60.0,60.0,60.0
1435,Ag1Br1,1.5728,225,4.12106,4.12106,4.12106,60.0,60.0,60.0
1436,O4Ti2,2.2602,136,4.671245,4.671245,3.023702,90.0,90.0,90.0
1437,Se12Tb8,0.3423,62,4.0507,11.01773,11.21252,90.0,90.0,90.0
1438,O4Si2,5.0105,136,4.23232,4.23232,2.693442,90.0,90.0,90.0
1439,Ag8S4,0.46180000000000004,14,7.065083,4.400405,8.25006,68.79696,90.0,90.0
1440,I2Li2,4.2242,194,4.242764,4.242693,6.977869,90.0,90.0,120.0006
1441,As1Ga1,0.2947,216,4.055378,4.055378,4.055378,60.0,60.0,60.0
1442,Cl4Mg2,5.1433,2,6.656851,7.081709,7.120891,64.61404,64.96745,76.20718
1443,Bi16O24,2.3477,14,7.405641,9.454603,10.34642,76.8864,90.0,90.0
1444,O1Zn1,2.1295,225,2.977379,2.977379,2.977379,60.0,60.0,60.0
1445,O2Zn2,1.8219,186,3.197785,3.197785,5.131436,90.0,90.0,119.9965
1446,O12Sb8,3.3261,227,8.106284,8.106284,8.106284,60.0,60.0,60.0
1447,N1Y1,0.146,225,3.478184,3.478184,3.478184,60.0,60.0,60.0
1448,Bi8S12,1.3743,62,4.024565,11.18462,11.66528,90.0,90.0,90.0
1449,H16N16,4.1653,53,3.840251,8.644464,9.018498,90.0,90.0,90.0
1450,Ga4S4,1.6755,194,3.611808,3.611808,15.80316,90.0,90.0,119.9989
1451,O3W1,0.7294,221,3.847318,3.847318,3.847318,90.0,90.0,90.0
1452,Cd1Te1,0.7056,216,4.669734,4.669734,4.669734,60.0,60.0,60.0
1453,Br1K1,3.8959,221,4.035092,4.035092,4.035092,90.0,90.0,90.0
1454,O6Si3,5.7123,154,4.978894,4.9784109999999995,5.472073,90.00642,89.99344,119.9894
1455,O2Zn2,1.8307,186,3.200107,3.19989,5.118346,90.0,90.0,120.0022
1456,Cd1Se1,0.641,216,4.370561,4.370561,4.370561,60.0,60.0,60.0
1457,P32Se24,2.1779,62,10.66515,11.92864,14.93145,90.0,90.0,90.0
1458,F4Mg2,6.8392,136,4.692365,4.692365,3.090787,90.0,90.0,90.0
1459,H4Mg2,3.7396000000000003,136,4.485546,4.485546,3.001447,90.0,90.0,90.0
1460,O30V16,0.3133,2,7.507744,5.539377,13.47945,83.20671,105.3937,116.3161
1461,O1Sr1,3.2756,225,3.681171,3.681171,3.681171,60.0,60.0,60.0
1462,O4Si2,5.0101,136,4.231721,4.231721,2.693386,90.0,90.0,90.0
1463,Ge2O4,1.1576,136,2.912839,4.48508,4.482754,90.0,90.0,90.0
1464,Pt4Yb4,0.0111,62,4.386839,5.645136,7.31084,90.0,90.0,90.0
1465,S4Sn4,0.9627,62,4.072757,4.464967,11.62025,90.0,90.0,90.0
1466,Ca2Cl4,5.4047,58,4.189791,6.325638,6.54083,90.0,90.0,90.0
1467,Sb2Te3,0.0381,166,10.58578,10.58578,10.58578,23.68011,23.68011,23.68011
1468,F12Ho4,7.7361,62,4.467287,6.322222,6.89833,90.0,90.0,90.0
1469,Cu1I1,1.6185,216,4.327878,4.327878,4.327878,60.0,60.0,60.0
1470,Bi8S12,1.3729,62,4.022917,11.17937,11.68502,90.0,90.0,90.0
1471,Na8P8,0.8768,19,5.655817,6.027781,10.1185,90.0,90.0,90.0
1472,Cl4Zn2,4.3099,137,3.6740209999999998,3.6740209999999998,11.455400000000001,90.0,90.0,90.0
1473,As2I6,2.1906,148,8.614259,8.614259,8.614259,50.11543,50.11543,50.11543
1474,S1Zn1,2.6807,216,3.797459,3.797459,3.797459,60.0,60.0,60.0
1475,As4Sn3,0.2644,215,5.91122,5.91122,5.91122,90.0,90.0,90.0
1476,Si6W3,0.14780000000000001,180,4.629908,4.629908,6.661455,90.0,90.0,120.0
1477,Br1Na1,4.1296,225,4.242237,4.242237,4.242237,60.0,60.0,60.0
1478,Ba4S12,1.022,18,5.105121,8.606568,10.12721,90.0,90.0,90.0
1479,O16Sb8,1.8704,33,4.903129,5.550674,11.94014,90.0,90.0,89.99915
1480,Pb4S4,0.8357,28,5.9432659999999995,6.296357,7.032891,90.0,90.0,90.0
1481,O24Y16,4.0583,206,9.264306,9.264306,9.264306,109.4712,109.4712,109.4712
1482,Ni2S2,0.1904,194,3.527683,3.527683,5.640778,90.0,90.0,120.0043
1483,Ge32Rb32,1.0677,218,13.31734,13.31734,13.31734,90.0,90.0,90.0
1484,Co2F4,4.2153,136,4.756893,4.756893,3.203841,90.0,90.0,90.0
1485,S4V5,0.511,87,7.006266,7.006266,7.006266,93.86424,93.86424,149.9073
1486,Cl4Cr2,2.0915,58,3.543351,6.121508,6.797874,90.0,90.0,90.0
1487,Ga4S6,1.9808,9,6.347058,6.347058,7.191077,73.97852,73.97852,60.16188
1488,Cl1K1,4.8603000000000005,221,3.820316,3.820316,3.820316,90.0,90.0,90.0
1489,Ge4S4,0.076,59,3.82134,3.918328,11.8668,90.0,90.0,90.0
1490,B1N1,4.456,216,2.56364,2.56364,2.56364,60.0,60.0,60.0
1491,Ba2N12,3.7966,11,4.469271,5.523232,9.780358,80.38907,90.0,90.0
1492,Rb6S6,1.5572,189,8.955467,8.955467,6.187281,90.0,90.0,120.0
1493,F4Mg2,6.8338,136,4.689897,4.689897,3.095612,90.0,90.0,90.0
1494,Mg1O1,4.4777000000000005,225,3.006336,3.006336,3.006336,60.0,60.0,60.0
1495,F3Sc1,6.5706,221,4.123691,4.123691,4.123691,90.0,90.0,90.0
1496,Gd16O24,3.6157,206,9.422938,9.422938,9.422938,109.4712,109.4712,109.4712
1497,Be2O2,7.4481,186,2.7111229999999997,2.711065,4.402616,90.0,90.0,120.0007
1498,Pd4Yb4,0.106,62,4.417955,5.741409,7.325803,90.0,90.0,90.0
1499,Os4Te8,0.14880000000000002,205,6.476414,6.476414,6.476414,90.0,90.0,90.0
1500,Na2Te1,2.0659,225,5.157638,5.157638,5.157638,60.0,60.0,60.0
1501,Br2Hg2,2.0764,139,6.622696,6.622696,6.622696,136.9872,136.9872,62.45772
1502,Cu2F4,1.8474,14,4.60644,3.341979,4.659734,83.03243,90.0,90.0
1503,Cl8Th2,3.8994,141,7.318375,7.318375,7.318375,106.3747,106.3747,115.8595
1504,Br1K1,3.8959,221,4.035092,4.035092,4.035092,90.0,90.0,90.0
1505,Hg4N12,2.1625,14,16.26082,4.955579,6.11529,66.85893,90.0,90.0
1506,Sb2Te3,0.047900000000000005,166,10.59164,10.59164,10.59164,23.67076,23.67076,23.67076
1507,Ce2O3,2.8167,164,3.949422,3.934377,6.158665,89.79952,90.0,120.1266
1508,K4O4,2.341,64,4.912707,4.912707,6.554283,90.0,90.0,91.85965
1509,O8Zr4,3.4744,14,5.278458,5.225305,5.407778,80.25208,90.0,90.0
1510,F6La2,7.285,194,4.226137,4.226137,7.4773119999999995,90.0,90.0,120.0044
1511,Eu1Se1,0.841,225,4.412553,4.412553,4.412553,60.0,60.0,60.0
1512,Ge2O4,1.1623,136,4.483735,4.483735,2.912559,90.0,90.0,90.0
1513,Cd7I14,2.3964,156,4.3111,4.311072,50.82186,89.99891,90.0,120.0002
1514,F8Pb4,4.3776,62,3.946225,6.566561,7.83554,90.0,90.0,90.0
1515,S12Sb8,1.2823,62,3.869969,11.234210000000001,12.15068,90.0,90.0,90.0
1516,Cd2S2,0.4161,59,3.877315,3.875199,5.479564,90.0,90.0,90.0
1517,P12Tc4,0.6023000000000001,62,3.1239,5.170774,15.48626,90.0,90.0,90.0
1518,Os2Sb4,0.4631,58,3.249442,5.998811,6.771706,90.0,90.0,90.0
1519,As16Zn8,0.289,14,7.759222,8.106189,9.348495,77.44694,90.0,90.0
1520,K2N6,4.1556,140,5.691209,5.691209,5.691209,113.8227,113.8227,101.0802
1521,N16Si12,4.6533999999999995,159,7.806998,7.806998,5.6602239999999995,90.00001,90.00001,119.9999
1522,Se4W2,1.2681,194,3.332445,3.3326919999999998,14.0434,90.0,90.0,119.9975
1523,Cd2I4,2.3976,166,14.7053,14.70509,14.70531,16.85491,16.85472,16.85491
1524,Cl32Tc8,1.8113000000000001,61,6.197611,12.96169,15.15047,90.0,90.0,90.0
1525,La2O3,3.771,164,3.986853,3.986622,6.268178,89.9975,90.0,120.0019
1526,O4Ti2,2.2601,136,4.674162,4.674162,3.024704,90.0,90.0,90.0
1527,O9Pr6,2.7984999999999998,12,7.576209,7.576209,9.140794,80.34921,80.34921,28.58625
1528,Cd2Se2,0.6901,186,4.374271,4.373888,7.132965,90.0,90.0,120.0029
1529,Ge1Te1,0.7191000000000001,160,4.350383,4.350383,4.350383,58.22569,58.22569,58.22569
1530,N3Na1,3.9452,12,3.6754059999999997,3.6754059999999997,5.39752,73.44537,73.44537,60.87879
1531,N6O12,2.8262,204,7.150802,7.150802,7.150802,109.4712,109.4712,109.4712
1532,Br1K1,3.9417,221,4.015285,4.015285,4.015285,90.0,90.0,90.0
1533,O8Si4,5.5384,92,5.050948,5.050948,7.068064,90.0,90.0,90.0
1534,Fe4Si4,0.8702000000000001,198,4.422447,4.422447,4.422447,90.0,90.0,90.0
1535,Be2C1,1.1657,225,3.058704,3.058704,3.058704,60.0,60.0,60.0
1536,O4Zr2,3.9024,137,3.646442,3.646442,5.329275,90.0,90.0,90.0
1537,S1Zn1,2.6807,216,3.7974740000000002,3.7974740000000002,3.7974740000000002,60.0,60.0,60.0
1538,Ir8Se16,0.07200000000000001,62,3.782934,6.00552,21.17468,90.0,90.0,90.0
1539,O8Zn4,2.753,205,4.835695,4.835695,4.835695,90.0,90.0,90.0
1540,Eu1Se1,0.84,225,4.4122900000000005,4.4122900000000005,4.4122900000000005,60.0,60.0,60.0
1541,S12Sn8,0.6667000000000001,62,3.856744,9.312215,14.48488,90.0,90.0,90.0
1542,S16Zn16,2.6765,186,3.798495,3.798502,49.67951,90.0,90.0,119.9999
1543,Br4Pd2,1.2792,15,7.205344,7.205344,6.731324,75.96522,75.96522,34.47014
1544,Al4O6,5.849,167,5.180953,5.180953,5.180953,55.29645,55.29645,55.29645
1545,Cd9I18,2.412,156,4.314481,4.31444,66.0332,90.00224,90.0,120.0003
1546,As1B1,1.2022,216,3.406638,3.406638,3.406638,60.0,60.0,60.0
1547,Er1N1,0.1221,225,3.427527,3.427527,3.427527,60.0,60.0,60.0
1548,K2Se1,2.1024,225,5.480786,5.480786,5.480786,60.0,60.0,60.0
1549,Fe2Se2,0.4587,67,4.218995,4.218995,5.717461,90.0,90.0,90.34893
1550,Ga1P1,1.6437,216,3.883848,3.883848,3.883848,60.0,60.0,60.0
1551,O8Si4,5.5205,92,5.07264,5.07264,7.115835,90.0,90.0,90.0
1552,Ag1I1,1.4727999999999999,225,4.362143,4.362143,4.362143,60.0,60.0,60.0
1553,Ba8Si16,0.7689,62,6.765386,9.036404,11.5917,90.0,90.0,90.0
1554,Bi4F12,4.672,62,5.040574,6.557995,7.116951,90.0,90.0,90.0
1555,Mo2Te4,0.8537,194,3.563948,3.563948,14.62763,90.0,90.0,119.9986
1556,Eu1Te1,0.7895000000000001,225,4.69092,4.69092,4.69092,60.0,60.0,60.0
1557,Cd2S2,1.2565,186,4.19053,4.190191,6.815995,90.0,90.0,120.0027
1558,S12Sb8,1.2825,62,3.870199,12.14922,11.23545,90.0,90.0,90.0
1559,Br4Ca2,4.5306,58,4.387357,6.711027,6.992254,90.0,90.0,90.0
1560,As1Ga1,0.29460000000000003,216,4.0554,4.0554,4.0554,60.0,60.0,60.0
1561,Be2O2,7.4521,186,2.710797,2.710797,4.402663,90.0,90.0,119.9979
1562,Dy8S12,0.7331000000000001,62,3.8889519999999997,7.311845,15.19909,90.0,90.0,90.0
1563,F24Hf6,5.3988,15,7.728836,7.728836,7.719876,63.35283,63.35283,80.17412
1564,Si28Tc16,1.2234,116,5.767571,5.767571,18.18574,90.0,90.0,90.0
1565,O2Ti1,1.8581,225,3.454758,3.454758,3.454758,60.0,60.0,60.0
1566,F18La6,7.6899,165,7.300243,7.300238,7.467797,89.99978,90.00018,120.001
1567,K2Te1,2.1406,225,5.821611,5.821611,5.821611,60.0,60.0,60.0
1568,C3N4,2.4781,215,3.455762,3.455762,3.455762,90.0,90.0,90.0
1569,Bi8S12,1.375,62,4.021635,11.20025,11.67697,90.0,90.0,90.0
1570,Se4Tl4,0.1087,140,6.807586,6.807586,6.807586,105.9581,105.9581,116.752
1571,Br1Li1,4.9388000000000005,225,3.893331,3.893331,3.893331,60.0,60.0,60.0
1572,O2Zn2,1.8159,186,3.197437,3.196915,5.138091,90.0,90.0,120.0054
1573,O24Yb16,0.39390000000000003,206,9.002821,9.002821,9.002821,109.4712,109.4712,109.4712
1574,O8Si4,5.4698,92,5.139137,5.139137,7.202673,90.0,90.0,90.0
1575,O2Zn2,1.8061,186,3.196968,3.196968,5.149377,90.00001,90.0,120.0002
1576,Pb1Te1,0.7988000000000001,225,4.636535,4.636535,4.636535,60.0,60.0,60.0
1577,Ho6O9,4.0551,12,7.215009,7.215009,8.614146,79.95026,79.95026,27.94412
1578,O16Si8,5.5407,14,4.950549,8.685783,8.851071,69.26797,90.0,90.0
1579,S20U12,0.3421,62,7.600317,8.18131,12.03273,90.0,90.0,90.0
1580,O16Si8,1.1866,50,3.881207,8.744677,9.832311,90.0,90.0,90.0
1581,O4Ti2,2.2668,136,4.672028,4.672028,3.023631,90.0,90.0,90.0
1582,Mo3Si6,0.2883,180,4.62626,4.62626,6.624109,90.0,90.0,120.0
1583,O6Si3,5.7181,154,4.975847,4.975594,5.468317,89.99173,90.01013,119.9943
1584,Li8P56,1.6471,142,12.17989,12.17989,12.17989,111.7999,111.7999,104.908
1585,N8Pt4,1.3075,205,4.852952,4.852952,4.852952,90.0,90.0,90.0
1586,In12Se18,1.0745,169,7.315522,7.315522,19.69622,90.0,90.0,120.0
1587,As6Si6,1.3094000000000001,12,8.815091,8.815091,10.05996,69.89482,69.89482,24.22953
1588,Cl2Sr1,5.2214,225,4.984248,4.984248,4.984248,60.0,60.0,60.0
1589,O4Ti2,2.2614,136,4.67103,4.67103,3.0239219999999998,90.0,90.0,90.0
1590,B2Cl6,4.6906,176,6.442033,6.441058,7.551883,90.0,90.0,119.9828
1591,Mn1O1,0.176,225,3.194134,3.194134,3.194134,60.0,60.0,60.0
1592,Mg1O1,4.4695,225,3.007213,3.007213,3.007213,60.0,60.0,60.0
1593,I6U2,2.1386,65,12.48226,12.48226,9.331467,90.0,90.0,150.0859
1594,O4Ti2,2.5511,141,5.572791,5.572791,5.572791,139.4382,139.4382,58.70737
1595,F2Pb1,4.3969000000000005,225,4.242086,4.242086,4.242086,60.0,60.0,60.0
1596,I2Yb1,3.2536,164,4.560837,4.560834,7.126839,90.00445,89.99551,120.0027
1597,Rb4Te2,1.3759000000000001,194,6.14455,6.14455,8.117159,90.0,90.0,119.9963
1598,Cl6Fe2,1.9905,148,7.149484,7.149345,7.149481,51.43597,51.43523,51.43406
1599,O4Si2,5.0025,136,4.232405,4.232405,2.693829,90.0,90.0,90.0
1600,As24Ca16,0.15460000000000002,13,5.859816,12.03498,13.795020000000001,89.20184,90.0,90.0
1601,Ba8Ge16,0.4712,62,6.878572,9.161471,11.69321,90.0,90.0,90.0
1602,Cl1Na1,5.0504,225,4.007906,4.007906,4.007906,60.0,60.0,60.0
1603,Mn4Te4,1.2002,62,4.747248,7.326121,7.910268,90.0,90.0,90.0
1604,B1Bi1,0.21910000000000002,216,3.899726,3.899726,3.899726,60.0,60.0,60.0
1605,As8Rb8,0.5881000000000001,19,6.742201,7.077208,12.223,90.0,90.0,90.0
1606,S1Zn1,2.6759,216,3.798623,3.798623,3.798623,60.0,60.0,60.0
1607,Mn1S1,0.8196,225,3.736041,3.736041,3.736041,60.0,60.0,60.0
1608,Eu1S1,0.5858,221,3.6510119999999997,3.6510119999999997,3.6510119999999997,90.0,90.0,90.0
1609,Cr3Si6,0.9304,180,4.419904,4.419904,6.366816,90.0,90.0,120.0
1610,O3Pr2,3.1364,164,3.900502,3.900355,6.10397,89.99837,90.0,120.0012
1611,Ge3O6,3.1452,152,5.033638,5.035099,5.758331,89.98923,89.99999,119.9984
1612,Al4O6,5.8488,167,5.180414,5.180414,5.180414,55.3036,55.3036,55.3036
1613,B2N2,4.5022,194,2.5126239999999997,2.5126239999999997,7.9698080000000004,90.0,90.0,119.9843
1614,Ag4O2,0.08710000000000001,224,4.87908,4.87908,4.87908,90.0,90.0,90.0
1615,Na6O6,1.7479,189,6.2550229999999996,6.2550229999999996,4.495612,90.0,90.0,120.0003
1616,N8Si6,4.2511,176,7.661673,7.661702,2.924638,90.0,90.0,120.0003
1617,Ba1S1,2.1517,225,4.565929,4.565929,4.565929,60.0,60.0,60.0
1618,Se6Zr2,0.3607,11,3.7843549999999997,5.4790600000000005,9.940323,82.82073,90.0,90.0
1619,S2Sn1,1.359,164,3.753084,3.753085,6.428177,90.00085,89.99914,120.0001
1620,O2Sr1,2.8184,139,4.228843,4.228843,4.228843,129.911,129.911,73.54906
1621,Cl2Mg1,5.5624,166,6.700824,6.700824,6.700824,31.83069,31.83069,31.83069
1622,Br36Pt12,0.9917,148,13.66382,13.66382,13.66382,115.1071,115.1071,115.1071
1623,Ge2S2,0.5487000000000001,63,5.881839,5.881839,3.8818989999999998,90.0,90.0,141.4863
1624,Ga2N2,1.0719,194,3.198934,3.19875,7.595179,90.0,90.0,120.0019
1625,O4Ti2,2.2638,136,4.672508,4.672508,3.023746,90.0,90.0,90.0
1626,Cu4O2,0.66,224,4.287167,4.287167,4.287167,90.0,90.0,90.0
1627,F6Fe2,2.7228,167,5.458567,5.458567,5.458567,56.83316,56.83316,56.83316
1628,As2I6,2.1742,148,8.368043,8.368043,8.368043,51.80834,51.80834,51.80834
1629,As6Na18,0.1173,185,8.783405,8.783405,8.987436,90.0,90.0,120.0023
1630,K4O4,2.3264,64,4.908311,4.908311,6.5809239999999996,90.0,90.0,91.87875
1631,Mg1O1,4.4696,225,3.007207,3.007207,3.007207,60.0,60.0,60.0
1632,Ir4P8,0.5117,14,5.821271,5.770777,5.876516,68.53244,90.0,90.0
1633,Al1P1,1.6291,216,3.893407,3.893407,3.893407,60.0,60.0,60.0
1634,Mn6O8,0.6407,141,6.355134,6.355134,6.355134,124.5961,124.5961,82.20818
1635,Cd11I22,2.3924,156,4.313171,4.313144,79.75463,90.00232,90.0,120.0002
1636,Er16O24,3.9685,206,9.133692,9.133692,9.133692,109.4712,109.4712,109.4712
1637,Br1Cu1,1.133,216,4.057508,4.057508,4.057508,60.0,60.0,60.0
1638,O6V4,0.0317,167,5.560867,5.560867,5.560867,54.78111,54.78111,54.78111
1639,Ni1O1,1.7915,225,2.9874359999999998,2.9874359999999998,2.9874359999999998,60.05845,60.05845,60.05845
1640,Ga1N1,1.7505000000000002,216,3.200814,3.200814,3.200814,60.0,60.0,60.0
1641,O4Sn2,0.029,136,4.9023129999999995,4.9023129999999995,3.30292,90.0,90.0,90.0
1642,Gd16O24,3.616,206,9.420431,9.420431,9.420431,109.4712,109.4712,109.4712
1643,Se2Zr1,0.2803,164,3.803639,3.8036630000000002,6.447844,90.00451,90.0,119.9998
1644,O4Ti2,2.2666,136,4.6723289999999995,4.6723289999999995,3.023118,90.0,90.0,90.0
1645,O6Si3,5.7129,152,4.97797,4.978076,5.477993,90.00001,89.99997,120.0004
1646,I12Zr6,0.0731,148,9.283377,9.283377,9.283377,106.7767,106.7767,106.7767
1647,P16Zn24,0.6937,137,7.994,7.994,11.29078,90.0,90.0,90.0
1648,Cl8Ta2,1.4594,12,7.359589,7.359589,8.79346,54.59363,54.59363,55.68992
1649,S16Zn16,2.685,156,3.798406,3.798364,49.68481,90.00006,90.0,120.0004
1650,O2Zr1,3.1236,225,3.642263,3.642263,3.642263,60.0,60.0,60.0
1651,F3La1,5.1581,139,4.351107,4.351107,4.351107,126.2723,126.2723,79.44109
1652,Ni1O1,1.7913000000000001,225,2.988644,2.988644,2.988644,60.0,60.0,60.0
1653,Al3F9,7.4255,150,5.1442309999999996,5.14423,6.302689,90.00005,89.99995,120.0006
1654,Al2N2,4.0642,186,3.127502,3.1272349999999998,5.017733,90.0,90.0,120.0028
1655,O2Zn2,1.8213,186,3.1991,3.1991,5.129963,90.0,90.0,119.9964
1656,Al4O6,5.8329,167,5.179076,5.179076,5.179076,55.34757,55.34757,55.34757
1657,Fe4O6,1.2762,167,5.5083,5.5083,5.5083,55.73996,55.73996,55.73996
1658,I12Tl4,1.6451,62,6.6408819999999995,9.811425,10.60718,90.0,90.0,90.0
1659,In16O24,1.1201,206,8.866908,8.866908,8.866908,109.4712,109.4712,109.4712
1660,Ca1F2,7.1318,225,3.897031,3.897031,3.897031,60.0,60.0,60.0
1661,O6Si3,5.675,154,5.023926,5.023927,5.492935,89.99986,89.99999,120.0007
1662,O4S32,2.4228,29,8.512547,8.778568,14.26515,90.00936,90.0,90.0
1663,S1Zn1,2.6725,216,3.79944,3.79944,3.79944,60.0,60.0,60.0
1664,Re8Si14,0.3124,8,11.824580000000001,11.824580000000001,8.374484,87.41709,87.41709,15.27409
1665,Al8O12,5.3128,60,4.847051,4.984282,7.08908,90.0,90.0,90.0
1666,C1Si1,1.3707,216,3.096849,3.096849,3.096849,60.0,60.0,60.0
1667,Cd11I22,2.3995,156,4.313198,4.313174,80.47095,90.00176,90.0,120.0002
1668,Cd1Te1,0.7091000000000001,216,4.667954,4.667954,4.667954,60.0,60.0,60.0
1669,Fe2Se2,0.496,129,4.214082,4.214082,5.707333,90.0,90.0,90.0
1670,Se1Zn1,1.6981000000000002,216,4.01055,4.01055,4.01055,60.0,60.0,60.0
1671,F2Hg1,0.9695,225,3.9976659999999997,3.9976659999999997,3.9976659999999997,60.0,60.0,60.0
1672,Cs1I1,3.6833,221,4.661956,4.661956,4.661956,90.0,90.0,90.0
1673,S4Sn4,0.9546,62,4.068239,4.462014,11.60937,90.0,90.0,90.0
1674,B2N2,4.4789,194,2.5125029999999997,2.5125029999999997,7.735671,90.0,90.0,120.0082
1675,H1Li1,2.9617,225,2.825638,2.825638,2.825638,60.0,60.0,60.0
1676,Pb1Se1,0.39840000000000003,225,4.386927,4.386927,4.386927,60.0,60.0,60.0
1677,N16Zr12,0.9767,62,3.301734,9.894389,10.90568,90.0,90.0,90.0
1678,Ba1Se1,1.9485999999999999,225,4.727376,4.727376,4.727376,60.0,60.0,60.0
1679,I2V1,2.4371,164,4.156066,4.156066,7.225737,90.00074,89.99926,119.995