,full_formula,band_gap,spacegroup.number,structure.lattice.a,structure.lattice.b,structure.lattice.c,structure.lattice.alpha,structure.lattice.beta,structure.lattice.gamma
2231,As16S16,0.1811,14,15.26475,7.25576,8.149119,73.33922,90.0,90.0
2232,Cd7I14,2.4018,156,4.311142,4.31111,50.87914,90.00187,90.0,120.0002
2233,O4Ti2,2.2601,136,4.669523,4.669523,3.023073,90.0,90.0,90.0
2234,Ag8Se4,0.0858,19,5.292038,7.321237,6.502361,90.0,90.0,90.0
2235,N4Pt2,0.5561,58,3.183984,3.76115,4.85879,90.0,90.0,90.0
2236,Al4O6,5.8413,167,5.181005,5.181005,5.181005,55.30992,55.30992,55.30992
2237,Cl6Y4,0.7554000000000001,12,8.134475,8.134475,10.36001,61.15957,61.15957,27.43312
2238,Ca1O1,3.6357,225,3.4223179999999997,3.4223179999999997,3.4223179999999997,60.0,60.0,60.0
2239,As16Zn24,0.1506,206,10.2026,10.2026,10.2026,109.4712,109.4712,109.4712
2240,Cl2Mg1,5.5347,166,6.585625,6.585625,6.585625,32.36298,32.36298,32.36298
2241,Ca1F2,7.1318,225,3.897031,3.897031,3.897031,60.0,60.0,60.0
2242,F4Fe2,2.6327,136,4.795913,4.795913,3.3330159999999998,90.0,90.0,90.0
2243,Cd11I22,2.3823,156,4.312412,4.312412,79.68141,90.00173,89.99827,120.0009
2244,Al4O6,5.848,167,5.180677,5.180677,5.180677,55.3002,55.3002,55.3002
2245,As4Cl12,4.0163,19,4.708447,10.23394,12.26494,90.0,90.0,90.0
2246,Cd5I10,2.3937,164,4.311863,4.311815,36.28756,90.00368,90.0,120.0004
2247,O4Si2,5.3686,227,5.274552,5.274552,5.274552,60.0,60.0,60.0
2248,As16S16,2.3576,14,18.62506,7.5827100000000005,9.730141,81.76946,90.0,90.0
2249,N2Y2,0.2144,194,3.421741,3.421741,6.019204,90.0,90.0,120.0002
2250,Pb1S1,0.46540000000000004,225,4.246214,4.246214,4.246214,60.0,60.0,60.0
2251,O16Si8,5.5441,15,7.235604,7.235604,7.23043,75.58728,75.58728,119.9003
2252,Br20P4,1.6182,57,5.977223,8.833829,17.27912,90.0,90.0,90.0
2253,As8S12,2.0006,2,5.883035,9.114801,11.10102,100.5317,103.0783,89.92638
2254,Cu4O2,0.6532,224,4.291527,4.291527,4.291527,90.0,90.0,90.0
2255,Mg2P8,0.6833,14,5.118015,5.182606,7.596564,81.41914,90.0,90.0
2256,F4Zn2,4.9543,136,4.679031,4.679031,3.078628,90.0,90.0,90.0
2257,Li3N1,0.9846,191,3.651239,3.651239,3.888778,90.0,90.0,119.9976
2258,O6Si3,5.7192,154,4.973075,4.973207,5.468297,89.99962,89.99965,120.0002
2259,Al1Sb1,1.2272,216,4.407916,4.407916,4.407916,60.0,60.0,60.0
2260,Cl6U2,2.6926,11,7.557644,7.60518,4.362736,90.0,90.0,119.9448
2261,Ga2N2,1.9019,186,3.203457,3.203378,5.226758,90.00003,90.0,120.0008
2262,Cr4O6,2.3715,167,5.44998,5.44998,5.44998,55.68522,55.68522,55.68522
2263,Na24Te24,0.49210000000000004,60,9.124386,10.03155,15.95088,90.0,90.0,90.0
2264,Cu4O2,0.6555000000000001,224,4.290044,4.290044,4.290044,90.0,90.0,90.0
2265,O4V2,0.728,136,4.51253,4.51253,3.02954,90.0,90.0,90.0
2266,S2W1,1.4543,160,7.101577,7.101577,7.101577,26.06425,26.06425,26.06425
2267,O24W8,1.4131,2,7.584572,7.829127,7.666139,89.64775,89.74951,89.76595
2268,Cd1Te1,0.7091000000000001,216,4.667953,4.667953,4.667953,60.0,60.0,60.0
2269,As16S16,2.1934,14,17.36447,7.108727,9.723673,73.09028,90.0,90.0
2270,F6Fe2,2.689,167,5.458646,5.458646,5.458646,57.80749,57.80749,57.80749
2271,Ce1O2,2.4254,225,3.882485,3.882485,3.882485,60.0,60.0,60.0
2272,S4Si2,3.2421,122,5.908305,5.908305,5.908305,123.3834,123.3834,84.23333
2273,O4Ti2,2.2653,136,4.671244,4.671244,3.022673,90.0,90.0,90.0
2274,Cl6Tc2,0.11370000000000001,12,5.758305,5.758305,6.7400400000000005,80.69069,80.69069,115.1376
2275,C8Ca4,1.5817,14,5.510266,4.027267,8.860347,81.51609,90.0,90.0
2276,O8Os2,3.3755,15,5.498076,5.498076,9.111777,65.82316,65.82316,50.86627
2277,F6Fe2,2.6991,167,5.437779,5.437779,5.437779,57.78251,57.78251,57.78251
2278,Cd10I20,2.37,156,4.314478,4.314478,72.51924,90.00228,89.99772,120.001
2279,Pb1Te1,0.7988000000000001,225,4.636534,4.636534,4.636534,60.0,60.0,60.0
2280,Pd4S8,0.669,61,5.510079,5.593567,8.20184,90.0,90.0,90.0
2281,Br6Fe2,1.5479,148,6.581824,6.582568,7.652556,64.54248,64.55801,60.05229
2282,F2Pb1,4.3969000000000005,225,4.241714,4.241714,4.241714,60.0,60.0,60.0
2283,Fe2Se2,0.5223,67,4.272163,4.272163,5.355143,90.0,90.0,90.49277
2284,Fe2S4,1.738,58,3.461891,4.492493,5.517162,90.0,90.0,90.0
2285,C2Ca1,1.3375,139,4.222983,4.222983,4.222983,125.1118,125.1118,81.35302
2286,F18La6,7.673,165,7.307787,7.307788,7.473064,90.00064,89.99937,120.0017
2287,Er6H18,0.0436,165,6.227761,6.227724,6.478322,89.99909,89.99999,119.9999
2288,Er16O24,3.9761,206,9.133394,9.133394,9.133394,109.4712,109.4712,109.4712
2289,Mn2S2,1.399,186,4.063551,4.063129,6.57285,90.0,90.0,120.0034
2290,O6Si3,5.7057,154,4.9801269999999995,4.980022,5.478877,90.00027,90.0003,120.0004
2291,Te10Zr2,0.07640000000000001,63,8.06537,8.06537,13.82834,90.0,90.0,150.9
2292,Hg2I4,2.1764,36,4.611937,4.611937,14.10104,90.0,90.0,112.9938
2293,O4Ti2,2.575,141,5.5943950000000005,5.5943950000000005,5.5943950000000005,139.6528,139.6528,58.38085
2294,Bi8S12,1.3642,62,4.033264,11.19777,11.63367,90.0,90.0,90.0
2295,C1Si1,1.3705,216,3.096544,3.096544,3.096544,60.0,60.0,60.0
2296,F4Si1,7.7039,217,4.766426,4.766426,4.766426,109.4712,109.4712,109.4712
2297,P8Rh4,0.2551,14,5.843544,5.781342,5.877146,67.11893,90.0,90.0
2298,Pt1S2,1.2009,164,3.568682,3.568682,5.628068,89.98848,90.01152,119.989
2299,O2Zn2,1.8219,186,3.198107,3.197906,5.131056,90.0,90.0,120.0021
2300,Al1N1,4.4286,225,2.876746,2.876746,2.876746,60.0,60.0,60.0
2301,O6Si3,5.6847,154,5.002171,5.002172,5.498377,89.99999,90.00003,120.0004
2302,Mn4S8,1.2244,205,5.646633,5.646633,5.646633,90.0,90.0,90.0
2303,O8Si4,5.5639,92,5.004147,5.004147,6.938821,90.0,90.0,90.0
2304,S24Zn24,2.666,156,3.798598,3.798577,74.48187,89.99995,90.0,120.0002
2305,I6Sb2,2.1246,148,8.738091,8.738091,8.738091,52.09821,52.09821,52.09821
2306,As8O12,4.0191,227,8.214247,8.214247,8.214247,60.0,60.0,60.0
2307,F1K1,6.2166,221,3.26746,3.26746,3.26746,90.0,90.0,90.0
2308,Ga1P1,1.6437,216,3.883855,3.883855,3.883855,60.0,60.0,60.0
2309,Os8Si16,0.7329,64,6.531495,6.531495,8.264938,90.0,90.0,102.9083
2310,I2Pb1,2.4344,164,4.653666,4.653666,8.029768,90.00764,89.99236,120.0015
2311,As8O20,1.4523000000000001,19,4.7189820000000005,8.666755,8.821542,90.0,90.0,90.0
2312,S12Sb8,1.2864,62,3.87441,11.25542,12.0923,90.0,90.0,90.0
2313,Cr4O6,2.3711,167,5.4491119999999995,5.4491119999999995,5.4491119999999995,55.69227,55.69227,55.69227
2314,Au1Cs1,0.7517,221,4.328193,4.328193,4.328193,90.0,90.0,90.0
2315,H1K1,3.4371,225,3.994143,3.994143,3.994143,60.0,60.0,60.0
2316,Cd7I14,2.3825,156,4.313242,4.313215,50.875,90.00216,90.0,120.0002
2317,K8P8,1.0338,19,6.103968,6.613293,11.43667,90.0,90.0,90.0
2318,O6Si3,5.7257,154,4.9726479999999995,4.972773,5.46699,89.99966,89.99972,120.0002
2319,Cd1Te1,0.7091000000000001,216,4.66797,4.66797,4.66797,60.0,60.0,60.0
2320,Cd3Te3,0.3069,152,4.573265,4.573008,10.48333,90.00412,89.99847,120.0024
2321,Al4O6,5.8638,167,5.178429,5.178429,5.178429,55.30178,55.30178,55.30178
2322,Pb1Se1,0.39790000000000003,225,4.386695,4.386695,4.386695,60.0,60.0,60.0
2323,Li1N3,3.5799000000000003,12,3.268831,3.268831,4.998622,75.22289,75.22289,61.05543
2324,Ag1Cl1,1.9714,225,3.972147,3.972147,3.972147,60.0,60.0,60.0
2325,Ag1I1,1.9771,216,4.703645,4.703645,4.703645,60.0,60.0,60.0
2326,Fe4O6,1.2836,167,5.516556,5.516556,5.516556,55.72281,55.72281,55.72281
2327,Ni1O1,1.792,225,2.988938,2.988938,2.988938,60.0,60.0,60.0
2328,Li6P2,0.7008,194,4.23891,4.238966,7.573066,90.0,90.0,119.9996
2329,Na2Se1,2.0641,225,4.8171669999999995,4.8171669999999995,4.8171669999999995,60.0,60.0,60.0
2330,S8Th4,1.1334,62,4.389505,7.4401,8.88035,90.0,90.0,90.0
2331,Mg1O1,4.4686,225,3.007309,3.007309,3.007309,60.0,60.0,60.0
2332,Cd5I10,2.3778,156,4.31076,4.31076,36.36789,90.0021,89.9979,120.0011
2333,As8K8,0.6649,19,6.555889,6.808416,11.73005,90.0,90.0,90.0
2334,F1Na1,6.1624,225,3.3075039999999998,3.3075039999999998,3.3075039999999998,60.0,60.0,60.0
2335,F3Sc1,6.5706,221,4.123685,4.123685,4.123685,90.0,90.0,90.0
2336,Ca1S1,2.3853,225,4.044465,4.044465,4.044465,60.0,60.0,60.0
2337,O12W4,0.9476,130,5.359165,5.359165,7.956301,90.0,90.0,90.0
2338,Cd1Te1,0.7091000000000001,216,4.667957,4.667957,4.667957,60.0,60.0,60.0
2339,S1Zn1,2.6806,216,3.797465,3.797465,3.797465,60.0,60.0,60.0
2340,Al4O6,5.8498,167,5.181049,5.181049,5.181049,55.29338,55.29338,55.29338
2341,Se6Zr2,0.36060000000000003,11,3.79021,5.478202,9.941758,96.30646,90.0,90.0
2342,Hg3S3,1.5209000000000001,154,4.350026,4.350307,9.654632,89.99993,90.00244,120.0042
2343,O6Si3,5.6478,154,5.050069,5.050069,5.532203,90.0,90.0,120.0
2344,Cu1I1,1.6458,216,4.308694,4.308694,4.308694,60.0,60.0,60.0
2345,Mn1S1,0.8361000000000001,225,3.739398,3.739398,3.739398,60.0,60.0,60.0
2346,Cl18U3,2.3567,164,11.79685,11.79685,6.527912,89.99307,90.00693,120.0045
2347,Br12Ga4,3.2741,14,5.9679839999999995,9.248484,11.56299,71.92451,90.0,90.0
2348,O18V10,0.3034,2,5.590812,7.081906,8.552749,70.75896,74.57623,71.71673
2349,S2Ti1,0.5638000000000001,164,3.487421,3.487737,6.183357,90.00977,90.0,119.997
2350,Ba1S1,2.1522,225,4.566411,4.566411,4.566411,60.0,60.0,60.0
2351,Dy1N1,0.049800000000000004,225,3.473496,3.473496,3.473496,60.0,60.0,60.0
2352,Al4O6,5.8492,167,5.180866,5.180866,5.180866,55.29676,55.29676,55.29676
2353,O8Ti4,2.8217,60,4.615476,5.028891,5.589524,90.0,90.0,90.0
2354,Cl8Sn4,0.38320000000000004,51,4.677313,7.01025,15.04014,90.0,90.0,90.0
2355,O8Te4,2.8083,96,4.96643,4.96643,7.655264,90.0,90.0,90.0
2356,Ru4S8,1.2732999999999999,205,5.678313,5.678313,5.678313,90.0,90.0,90.0
2357,C4O8,6.6284,205,5.863805,5.863805,5.863805,90.0,90.0,90.0
2358,Cl1Na1,5.0535,225,4.006792,4.006792,4.006792,60.0,60.0,60.0
2359,Cd14I28,2.2413,156,4.315188,4.315166,101.9735,90.00181,90.0,120.0002
2360,O4Ti2,2.561,141,5.585379,5.585379,5.585379,139.5517,139.5517,58.53461
2361,Ce1O2,2.4183,225,3.885099,3.885099,3.885099,60.0,60.0,60.0
2362,La2O3,3.7576,164,3.988056,3.987755,6.24785,89.9964,90.0,120.0025
2363,O4Zr2,3.898,137,3.644125,3.644125,5.317654,90.0,90.0,90.0
2364,O4Zr2,3.8954,137,3.648278,3.648278,5.326351,90.0,90.0,90.0
2365,F18S3,5.8597,12,8.387895,8.387895,4.972123,85.29909,85.29909,60.99862
2366,Br8Cu8,0.7607,205,6.959473,6.959473,6.959473,90.0,90.0,90.0
2367,Sn1Te1,0.0745,225,4.562475,4.562475,4.562475,60.0,60.0,60.0
2368,F4Nb1,0.7228,139,5.325656,5.325656,5.325656,133.9301,133.9301,67.19721
2369,Ir4P8,0.5213,14,5.816737,5.770561,5.87502,68.54163,90.0,90.0
2370,Cu4O2,0.655,224,4.290395,4.290395,4.290395,90.0,90.0,90.0
2371,F2Pb1,4.3969000000000005,225,4.242096,4.242096,4.242096,60.0,60.0,60.0
2372,Cd14I28,2.3878,156,4.314712,4.314674,102.6487,90.00291,90.0,120.0003
2373,Cl1K1,4.861,221,3.820084,3.820084,3.820084,90.0,90.0,90.0
2374,O24Y16,4.0625,206,9.264684,9.264684,9.264684,109.4712,109.4712,109.4712
2375,Mg4Te8,1.1082,205,7.106029,7.106029,7.106029,90.0,90.0,90.0
2376,O2Zn2,1.8226,186,3.197993,3.197791,5.130634,90.0,90.0,120.0021
2377,Fe2S4,1.7399,58,3.466922,4.493704,5.5219190000000005,90.0,90.0,90.0
2378,Al4O6,5.8477,167,5.180395,5.180395,5.180395,55.30681,55.30681,55.30681
2379,S12Sb8,1.2687,62,3.87426,12.09567,11.22586,90.0,90.0,90.0
2380,S4Zn4,2.7084,160,12.61211,12.61211,12.61211,17.31827,17.31886,17.31835
2381,Cd1Cl2,3.5512,166,6.443458,6.443458,6.443458,35.18287,35.18287,35.18287
2382,O8Si4,5.1397,5,5.470353,5.470353,5.511173,83.64266,83.64266,99.92301
2383,N8Si6,4.2462,176,7.660084,7.660036,2.924996,90.0,90.0,119.999
2384,S20U12,0.5155000000000001,62,7.570732,8.229226,12.11999,90.0,90.0,90.02291
2385,Co6O8,0.30960000000000004,227,5.96152,5.96152,5.96152,60.0,60.0,60.0
2386,O6Si3,5.6544,154,5.043793,5.043675,5.5309539999999995,90.0005,90.00057,120.0004
2387,O8Si4,5.5611,92,5.017042,5.017042,6.975432,90.0,90.0,90.0
2388,O8Si4,4.0169,1,4.814779,4.858391,5.9403939999999995,90.6769,93.4213,104.9604
2389,Ga4Se4,0.8081,194,3.812875,3.813355,16.31839,90.0,90.0,119.9958
2390,B2N2,5.2102,186,2.555175,2.555175,4.224369,90.0,90.0,119.9986
2391,S1Zn1,2.6726,216,3.799433,3.799433,3.799433,60.0,60.0,60.0
2392,Se2Sn2,0.38180000000000003,63,6.444384,6.444384,4.338195,90.0,90.0,140.751
2393,Ce1O2,2.4235,225,3.88314,3.88314,3.88314,60.0,60.0,60.0
2394,Cl1Na1,5.0476,225,4.00889,4.00889,4.00889,60.0,60.0,60.0
2395,O1Sr1,2.7437,221,3.139845,3.139845,3.139845,90.0,90.0,90.0
2396,S12Sb8,1.2806,62,3.87035,12.14757,11.23388,90.0,90.0,90.0
2397,B6O9,6.2544,144,4.404266,4.404266,8.887209,90.0,90.0,120.0
2398,Er16O24,3.9615,206,9.134647,9.134647,9.134647,109.4712,109.4712,109.4712
2399,Li3N1,1.0054,191,3.648934,3.648934,3.873744,90.0,90.0,120.0126
2400,O16Se8,3.2676,135,8.696202,8.696202,5.204743,90.0,90.0,90.0
2401,Au1Rb1,0.0736,221,4.156716,4.156716,4.156716,90.0,90.0,90.0
2402,Li4O4,1.9843000000000002,194,3.185634,3.185479,7.712389,90.0,90.0,120.0016
2403,O8Si4,5.3839,4,8.472174,5.185465,5.230569,119.1875,90.0,90.0
2404,F24U4,3.8261000000000003,62,5.385025,9.389787,10.30383,90.0,90.0,90.0
2405,Br10Pr4,0.13920000000000002,11,4.226358,8.091083,13.70939,89.99564,90.0,90.0
2406,Ca1F2,7.1319,225,3.897037,3.897037,3.897037,60.0,60.0,60.0
2407,F12Fe4,2.8021000000000003,227,7.411474,7.411474,7.411474,60.0,60.0,60.0
2408,Rb8Te4,1.3788,62,6.143374,8.122122,10.63692,90.00025,90.0,90.0
2409,Cd2Se2,0.6900000000000001,186,4.373757,4.373757,7.132845,90.0,90.0,119.994
2410,Mg1O1,4.4948,225,3.004512,3.004512,3.004512,60.0,60.0,60.0
2411,O8Zr4,3.4455,14,5.292343,5.216297,5.38891,80.3883,90.0,90.0
2412,La8P16,0.3381,9,10.22059,10.22059,8.073223,76.08951,76.08951,124.2949
2413,Cl1K1,4.8498,221,3.823489,3.823489,3.823489,90.0,90.0,90.0
2414,Hg2I4,2.257,36,4.5960090000000005,4.5960090000000005,14.17225,90.0,90.0,111.4812
2415,O16Si8,5.5184,19,7.248708,7.293506,7.246482,90.0,90.0,90.0
2416,Se8Th4,0.7249,62,4.533291,7.778704,9.337932,90.0,90.0,90.0
2417,Sb2Te3,0.0891,166,10.65121,10.65121,10.65121,23.50856,23.50856,23.50856
2418,Ca1F2,7.1318,225,3.897039,3.897039,3.897039,60.0,60.0,60.0
2419,Al4Br12,3.9016,14,9.135914,9.030651,12.80094,92.42548,90.0,90.0
2420,O6Si3,5.6897,154,5.007138,5.007145,5.48654,90.00299,89.99769,120.0049
2421,Be6F12,8.0374,217,7.331849,7.331849,7.331849,109.4712,109.4712,109.4712
2422,Se1Sn1,0.0324,225,4.317843,4.317843,4.317843,60.0,60.0,60.0
2423,Cu4P8,0.8729,14,4.83274,5.818366,7.539606,67.43006,90.0,90.0
2424,Ge20Ir16,0.0908,116,5.65636,5.65636,18.48418,90.0,90.0,90.0
2425,Fe2Se2,0.49050000000000005,67,4.24927,4.24927,5.465958,90.0,90.0,90.22424
2426,Nb4Se18,0.8432000000000001,2,8.527892,8.836403,8.863635,100.0131,96.06304,95.10931
2427,F4Ni2,4.0079,136,4.706945,4.706945,3.114251,90.0,90.0,90.0
2428,Pb1Se1,0.3985,225,4.386931,4.386931,4.386931,60.0,60.0,60.0
2429,Ca1O1,3.6352,225,3.419433,3.419433,3.419433,60.0,60.0,60.0
2430,O4Si2,5.0127,136,4.232701,4.232701,2.692784,90.0,90.0,90.0
2431,Cl6Pr2,3.0252,176,7.528159,7.524578,4.318401,90.0,90.0,120.1127
2432,O2Zn2,1.8199,186,3.197227,3.197032,5.13396,90.0,90.0,120.002
2433,Fe8O10,0.1855,63,5.128086,5.128086,12.60784,90.0,90.0,146.6446
2434,O4Ti2,2.2636,136,4.674853,4.674853,3.024909,90.0,90.0,90.0
2435,Sb8Se12,0.7551,62,4.031321,11.54834,12.79874,90.0,90.0,90.0
2436,O6V4,0.037700000000000004,167,5.557847,5.557847,5.557847,54.84457,54.84457,54.84457
2437,Cu1I1,1.6522999999999999,216,4.304267,4.304267,4.304267,60.0,60.0,60.0
2438,Ge3O6,3.133,154,5.066167,5.066037,5.752852,90.00048,90.00019,120.0011
2439,Ca1Te1,1.5373999999999999,225,4.514529,4.514529,4.514529,60.0,60.0,60.0
2440,Ba2Te4,0.3421,140,6.86342,6.86342,6.86342,116.3379,116.3379,96.46936
2441,Cd2S2,1.2634,186,4.190787,4.190444,6.804472,90.0,90.0,120.0027
2442,I32Te8,1.7793,141,14.12135,14.12135,14.12135,100.9833,100.9833,128.2398
2443,Se4Tl4,0.10790000000000001,140,6.80794,6.80794,6.80794,105.9564,105.9564,116.7558
2444,C2Si2,2.2984,186,3.091287,3.091112,5.074113,90.0,90.0,120.0019
2445,Bi8O12,1.6526,114,8.012575,8.012575,5.736866,90.0,90.0,90.0
2446,F4Mn2,2.5763,136,4.971757,4.971757,3.350324,90.0,90.0,90.0
2447,I6U2,1.6108,63,8.003274,8.003274,10.11047,90.0,90.0,148.1037
2448,P6Sr6,0.4545,189,8.095986,8.095985,6.051737,90.0,90.0,120.0
2449,H1Na1,3.7974,225,3.393676,3.393676,3.393676,60.0,60.0,60.0
2450,S9Tl18,0.7436,146,9.653173,9.654069,9.653277,81.5915,81.59401,81.59749
2451,P32S24,2.8221,62,10.49352,11.44524,14.792860000000001,90.0,90.0,90.0
2452,F6Fe2,2.7317,167,5.432034,5.432034,5.432034,57.19981,57.19981,57.19981
2453,Mo2S4,1.1596,194,3.202173,3.202173,13.1828,90.0,90.0,119.9908
2454,Lu16O24,4.0102,206,8.936849,8.936849,8.936849,109.4712,109.4712,109.4712
2455,Gd6O9,3.5929,12,7.377868,7.377868,8.829398,79.92923,79.92923,28.0878
2456,Br1Tl1,1.9496,221,4.034768,4.034768,4.034768,90.0,90.0,90.0
2457,Mo8O24,1.3372,14,7.755091,7.432117,7.9706969999999995,89.40398,90.0,90.0
2458,Ga4O6,2.6523,167,5.369069,5.369069,5.369069,55.88927,55.88927,55.88927
2459,Co4Sb12,0.1592,204,7.870988,7.870988,7.870988,109.4712,109.4712,109.4712
2460,B1N1,4.4565,216,2.563263,2.563263,2.563263,60.0,60.0,60.0
2461,I4Pb2,2.4094,166,15.3736,15.3736,15.3736,17.42425,17.42425,17.42425
2462,O4Ti2,2.2621,136,4.671356,4.671356,3.024032,90.0,90.0,90.0
2463,I14Pb7,2.385,156,4.656311,4.656539,52.04549,89.98,90.0,119.9984
2464,Li2Se1,2.9754,225,4.258522,4.258522,4.258522,60.0,60.0,60.0
2465,Hg3O3,1.244,154,3.74902,3.748633,8.86723,89.99359,89.99362,120.0008
2466,O4V2,0.7443000000000001,136,4.508603,4.508603,3.036316,90.0,90.0,90.0
2467,Cl1K1,5.0365,225,4.517282,4.517282,4.517282,60.0,60.0,60.0
2468,O16Zr8,3.5814,61,5.160505,5.331298,10.20976,90.0,90.0,90.0
2469,O4V2,0.7309,136,4.511112,4.511112,3.031833,90.0,90.0,90.0
2470,H16Si2,6.7604,31,4.999235,4.993875,6.901177,90.0,90.0,90.0
2471,Bi2Se3,0.3242,166,10.09759,10.09759,10.09759,23.955940000000002,23.955940000000002,23.955940000000002
2472,Ag1Cl1,1.9715,225,3.97182,3.97182,3.97182,60.0,60.0,60.0
2473,O4Pb2,0.0236,136,5.077774,5.077774,3.45246,90.0,90.0,90.0
2474,B12C3,1.5133,166,5.186586,5.186615,5.186645,65.9256,65.9259,65.92621
2475,O4Ti2,2.2541,136,4.672571,4.672571,3.026396,90.0,90.0,90.0
2476,B1P1,1.2476,216,3.214803,3.214803,3.214803,60.0,60.0,60.0
2477,I2Ni1,1.3511,166,7.374472,7.374472,7.374472,31.33708,31.33708,31.33708
2478,K2Se1,2.1075,225,5.476515,5.476515,5.476515,60.0,60.0,60.0
2479,Ce4P20,0.0776,11,9.677154999999999,5.532078,10.02457,76.57467,90.0,90.0
2480,O16Si8,4.6003,48,4.528057,8.250791,9.469829,90.0,90.0,90.0
2481,Cd8P16,1.4519,92,5.355828,5.355828,19.98765,90.0,90.0,90.0
2482,Ni2S4,0.33690000000000003,58,3.654842,4.694833,5.796434,90.0,90.0,90.0
2483,O6Si3,5.7118,154,4.986666,4.986657,5.466917,89.99838,90.00329,120.0002
2484,Mg2O2,3.2585,194,3.526297,3.5260920000000002,4.237415,90.0,90.0,120.0019
2485,Pb1Te1,0.7988000000000001,225,4.63657,4.63657,4.63657,60.0,60.0,60.0
2486,Co2F4,4.2124,136,4.760615,4.760615,3.204389,90.0,90.0,90.0
2487,F24Ir4,1.5372,62,5.264968,9.09291,10.00724,90.0,90.0,90.0
2488,O36Si18,5.4394,63,10.2506,10.2506,14.1249,90.0,90.0,136.6828
2489,Cd2Se2,0.6893,186,4.373322,4.372932,7.135782,90.0,90.0,120.003
2490,Na2S1,2.4898,225,4.622121,4.622121,4.622121,60.0,60.0,60.0
2491,Al1Sb1,1.2272,216,4.40789,4.40789,4.40789,60.0,60.0,60.0
2492,Fe8Si16,0.9744,64,6.267316,6.267316,7.803369,90.0,90.0,104.0076
2493,F2Kr1,2.9068,139,4.576697,4.576697,4.576697,122.0389,122.0389,86.50332
2494,K2Te1,2.1393,225,5.822691,5.822691,5.822691,60.0,60.0,60.0
2495,Ni2P4,0.6645,15,4.26009,4.26009,5.640295,68.44503,68.44503,82.53758
2496,Be1O1,6.8509,216,2.704638,2.704638,2.704638,60.0,60.0,60.0
2497,I2Tl2,2.1065,63,7.060292,7.060292,5.293051,90.0,90.0,141.2282
2498,Bi2Te3,0.34550000000000003,166,10.71776,10.71776,10.71776,23.93456,23.93456,23.93456
2499,Al4O6,5.8489,167,5.180907,5.180907,5.180907,55.29699,55.29699,55.29699
2500,Te1Zn1,1.4777,216,4.341189,4.341189,4.341189,60.0,60.0,60.0
2501,O6Si3,5.7116,154,4.9785889999999995,4.978515,5.478238,90.00032,89.99939,119.9989
2502,Al4O6,5.8477,167,5.180759,5.180759,5.180759,55.30101,55.30101,55.30101
2503,Cr4O6,2.3718,167,5.449743,5.449743,5.449743,55.68356,55.68356,55.68356
2504,Se1Zn1,1.6884000000000001,216,4.013316,4.013316,4.013316,60.0,60.0,60.0
2505,O2Zn2,1.8235999999999999,186,3.19812,3.19812,5.129096,90.0,90.0,119.9964
2506,Br1K1,3.8662,221,4.048284,4.048284,4.048284,90.0,90.0,90.0
2507,Al4O6,5.849,167,5.180862,5.180862,5.180862,55.29742,55.29742,55.29742