,full_formula,DebyeTemp,spacegroup.number,structure.lattice.a,structure.lattice.b,structure.lattice.c,structure.lattice.alpha,structure.lattice.beta,structure.lattice.gamma
5043,B4C4Tb2,620.917,131,3.798971,3.798971,7.264416,90.0,90.0,90.0
5044,Sn4Y2Zn2,245.095,129,4.40494,4.40494,9.930185,90.0,90.0,90.0
5045,O3Pb1Zr1,417.509,221,4.209315,4.209315,4.209315,90.0,90.0,90.0
5046,Mn1Pb1Rh2,268.735,225,4.54971,4.54971,4.54971,60.0,60.0,60.0
5047,Bi1Dy2O2,231.696,139,7.3212209999999995,7.3212209999999995,7.3212209999999995,149.2538,149.2538,44.03782
5048,Bi2O8V2,330.85,141,6.166182,6.166182,6.166182,106.2013,106.2013,116.2298
5049,K12Sb4Te12,117.168,198,10.56134,10.56134,10.56134,90.0,90.0,90.0
5050,Cs2H4Mg1,219.79,139,8.051042,8.051042,8.051042,148.9531,148.9531,44.48037
5051,F3Mg1Na1,548.631,221,3.952775,3.952775,3.952775,90.0,90.0,90.0
5052,Ag2Bi2Ca2,177.057,194,4.917349,4.917349,7.951703,90.0,90.0,119.9982
5053,Ni1Sn1U1,188.684,216,4.626734,4.626734,4.626734,60.0,60.0,60.0
5054,Ca4Ge8Li4,328.915,62,3.9366339999999997,8.016761,10.76501,90.0,90.0,90.0
5055,Er1Ni1Sb1,297.028,216,4.451257,4.451257,4.451257,60.0,60.0,60.0
5056,Al1C1Sc3,630.221,221,4.577071,4.577071,4.577071,90.0,90.0,90.0
5057,Cu2Er2Pb2,222.922,194,4.613733,4.613733,7.294731,90.0,90.0,119.9988
5058,Dy4Ni4P4,356.92,194,3.904682,3.904682,15.17898,90.0,90.0,119.9981
5059,Cd1O6Sb2,387.157,162,5.3226890000000004,5.322668,4.914413,90.00037,89.99925,120.0001
5060,In4Li4Se8,192.928,33,6.922623,7.321215,8.556072,90.0,90.0,90.0
5061,Cu2Na2Se2,253.757,129,4.123616,4.123616,6.882473,90.0,90.0,90.0
5062,Au2Dy2Sn2,217.712,186,4.723204,4.723204,7.463359,90.0,90.0,120.0001
5063,Ca2Ge2N4,467.242,122,5.297961,5.297961,5.297961,117.9604,117.9604,93.57061
5064,Cu2Dy2Sn2,270.388,194,4.55196,4.5518,7.423873,90.0,90.0,120.0012
5065,N1Sb1Sr3,306.119,221,5.215481,5.215481,5.215481,90.0,90.0,90.0
5066,Al1C1Tb3,321.212,221,4.914161,4.914161,4.914161,90.0,90.0,90.0
5067,Al4Au4Yb4,190.788,62,4.541427,7.27254,7.924327,90.0,90.0,90.0
5068,Au1Bi1Ca1,168.436,216,4.935403,4.935403,4.935403,60.0,60.0,60.0
5069,Cl1Na3O1,403.805,221,4.512217,4.512217,4.512217,90.0,90.0,90.0
5070,C2Dy10Ge6,259.729,193,8.511082,8.511082,6.468868,90.0,90.0,120.001
5071,Cu2S8Zr4,313.01,227,7.403728,7.403728,7.403728,60.0,60.0,60.0
5072,Br1O1Rb3,172.959,221,5.57635,5.57635,5.57635,90.0,90.0,90.0
5073,As1Ca3N1,470.599,221,4.77,4.77,4.77,90.0,90.0,90.0
5074,Fe1Nb1Sb1,383.003,216,4.205843,4.205843,4.205843,60.0,60.0,60.0
5075,Mn1Ni2Sb1,278.438,225,4.318397,4.318397,4.318397,60.0,60.0,60.0
5076,Pd2Si2Tb1,327.503,139,5.751499,5.751499,5.751499,137.5525,137.5525,61.58913
5077,B6Ce2Ni21,392.544,225,7.526197,7.526197,7.526197,60.0,60.0,60.0
5078,Dy3In3Rh3,202.374,189,7.469415,7.469416,3.931803,90.0,90.0,120.0
5079,N4Ni8Zr16,379.526,227,8.647053,8.647053,8.647053,60.0,60.0,60.0
5080,Ca3Cd3Ge3,299.51,189,7.379706,7.379644,4.500862,90.0,90.0,120.0003
5081,Au2K2Te2,153.267,194,4.782349,4.782349,9.91011,90.0,90.0,119.996
5082,Ca3N1Pb1,166.224,221,5.947202,5.947202,5.947202,90.0,90.0,90.0
5083,Ga4Mg2O8,580.418,227,5.954806,5.954806,5.954806,60.0,60.0,60.0
5084,Cu2Sc2Sn2,316.841,194,4.514767,4.514767,6.842988,90.0,90.0,119.9992
5085,F6K2Ni1,251.605,225,5.821505,5.821505,5.821505,60.0,60.0,60.0
5086,Cu2K2Se2,259.194,194,4.225205,4.225205,9.690976,90.0,90.0,120.0003
5087,In4Pd4Sr4,193.15,62,4.560219,7.6471160000000005,8.673786,90.0,90.0,90.0
5088,Ho3Ir3Sn3,222.858,189,7.552961,7.552961,3.856587,90.0,90.0,120.0001
5089,C2Ni1Tb1,493.548,38,3.761716,3.761716,3.5949169999999997,90.0,90.0,106.5216
5090,In4Pd2Yb2,187.756,63,5.65529,5.65529,7.939472,90.0,90.0,132.9943
5091,Al4Mg2O8,871.16,63,4.84424,4.84424,9.46267,90.0,90.0,146.3256
5092,Cl6Cs2Pt1,117.36,225,7.486862,7.486862,7.486862,60.0,60.0,60.0
5093,Na12Sb4Te12,136.627,198,9.630387,9.630387,9.630387,90.0,90.0,90.0
5094,Cs1F3Sr1,257.5,221,4.821638,4.821638,4.821638,90.0,90.0,90.0
5095,Hf4Ni4P4,405.034,62,3.696681,6.289862,7.101092,90.0,90.0,90.0
5096,H1Mg1Ni1,508.896,123,3.076639,3.076639,3.204888,90.0,90.0,90.0
5097,Cu3Mg3Y3,251.28,189,7.465069,7.465069,4.025167,90.0,90.0,120.0021
5098,Ni2Si2Zr1,480.417,139,5.52981,5.52981,5.52981,140.1621,140.1621,57.60723
5099,Al2Mn2Pt2,308.038,194,4.380019,4.380019,5.614924,90.0,90.0,119.9998
5100,In2La2Zn2,271.767,194,4.791025,4.791025,7.968362,90.0,90.0,120.0016
5101,Ge3La1Os1,289.532,107,6.011491,6.011491,6.011491,136.2051,136.2051,63.66339
5102,La1Ru4Sb12,275.598,204,8.123343,8.123343,8.123343,109.4712,109.4712,109.4712
5103,Cu2Sn2Tb2,274.59,194,4.567425,4.567288,7.449459,90.0,90.0,120.001
5104,Ge2Ho1Rh2,321.258,139,5.929253,5.929253,5.929253,139.341,139.341,58.85524
5105,Ce3Ga3Ni3,273.716,189,6.8958639999999995,6.8958639999999995,3.956545,90.0,90.0,120.005
5106,As1Cu3S4,298.98,215,5.311328,5.311328,5.311328,90.0,90.0,90.0
5107,Ba4O12Ru4,361.042,194,5.835688,5.835583,9.786306,90.0,90.0,120.0006
5108,Ge1I3Rb1,145.483,221,5.950083,5.950083,5.950083,90.0,90.0,90.0
5109,H2Si6Y10,416.598,193,8.468667,8.468667,6.26629,90.0,90.0,119.9999
5110,Ni4Sn4Y4,281.771,62,4.5008669999999995,7.177338,7.737494,90.0,90.0,90.0
5111,Ga1Hf1Ni2,151.028,225,4.268476,4.268476,4.268476,60.0,60.0,60.0
5112,Ge4Rh4Zr4,380.075,62,4.01422,6.654502,7.608445,90.0,90.0,90.0
5113,Cl6K2Tc1,176.007,225,7.131581,7.131581,7.131581,60.0,60.0,60.0
5114,Nb5P4Pd4,386.36,87,7.598522,7.598522,7.598522,93.29729,93.29729,152.2474
5115,Au2Ca2In4,207.045,63,5.925549,5.925549,7.732714,90.0,90.0,134.0059
5116,Mg2O8Rh4,454.08,227,6.119291,6.119291,6.119291,60.0,60.0,60.0
5117,Dy4Ge6Rh7,340.967,229,7.261074,7.261074,7.261074,109.4712,109.4712,109.4712
5118,In1Li2Mg1,313.207,225,4.747645,4.747645,4.747645,60.0,60.0,60.0
5119,As4Co4S4,530.879,198,5.594051,5.594051,5.594051,90.0,90.0,90.0
5120,Mn2Na2O4,566.896,59,2.922257,4.8638770000000005,6.409999,90.0,90.0,90.0
5121,Mg1Ni1Sb1,322.177,216,4.284799,4.284799,4.284799,60.0,60.0,60.0
5122,Ca1Si2Zn2,388.781,139,5.928271,5.928271,5.928271,138.4971,138.4971,60.14259
5123,Ni4O8Si2,671.928,227,5.740061,5.740061,5.740061,60.0,60.0,60.0
5124,Au2Ga2O4,326.481,194,3.03641,3.03641,12.44962,90.0,90.0,120.0005
5125,Rh3Si2Y1,462.864,191,5.52578,5.52578,3.631833,90.0,90.0,120.0052
5126,Au1Ho1Pb1,174.85,216,4.80995,4.80995,4.80995,60.0,60.0,60.0
5127,Ag2Dy1In1,170.341,225,4.941152,4.941152,4.941152,60.0,60.0,60.0
5128,Cd1Cl3Cs1,202.888,221,5.311825,5.311825,5.311825,90.0,90.0,90.0
5129,Li4O10Si4,653.135,37,7.99167,7.99167,4.833895,90.0081,90.0081,136.7635
5130,Ag2Al2Te4,179.162,122,7.593994,7.593994,7.593994,129.639,129.639,73.98456
5131,Au24Na8Si8,175.379,205,9.082927,9.082927,9.082927,90.0,90.0,90.0
5132,B1Rh3Y1,409.006,221,4.199033,4.199033,4.199033,90.0,90.0,90.0
5133,Cu2Er2Sn2,268.725,194,4.547921,4.547772,7.266395,90.0,90.0,120.0011
5134,Ir4La16Mg4,178.568,216,10.27625,10.27625,10.27625,60.0,60.0,60.0
5135,Ag2La1Si2,335.561,139,6.222555,6.222555,6.222555,139.4027,139.4027,58.76135
5136,Mg4N8Si4,859.828,33,5.029298,5.312083,6.502566,90.0,90.0,90.0
5137,Ca4O8Sn2,495.643,55,3.341153,5.825019,9.872165,90.0,90.0,90.0
5138,N4Sr2Ti2,441.852,129,3.932363,3.932363,7.839271,90.0,90.0,90.0
5139,Dy6Ga2O12,382.615,36,7.138968,7.138968,5.4446069999999995,90.0,90.0,102.831
5140,C1Ga1Sc3,570.132,221,4.547568,4.547568,4.547568,90.0,90.0,90.0
5141,Mn2Sn1W1,417.341,225,4.348202,4.348202,4.348202,60.0,60.0,60.0
5142,Br8Li6Mg1,239.068,225,7.818241,7.818241,7.818241,60.0,60.0,60.0
5143,Dy16Mg4Rh4,199.562,216,9.667459000000001,9.667459000000001,9.667459000000001,60.0,60.0,60.0
5144,Pd2Si2U1,302.142,139,5.829001,5.829001,5.829001,137.7357,137.7357,61.30801
5145,Al4Ge2La4,325.748,63,13.77733,13.77733,4.589204,90.0,90.0,162.5617
5146,B4Li4Rh6,483.218,55,2.83719,5.782986,9.502198,90.0,90.0,90.0
5147,Cu3O5Sr2,420.911,65,9.97239,9.97239,3.507288,90.0,90.0,157.0812
5148,Ca2In4P4,321.836,194,4.066003,4.066003,17.59788,90.0,90.0,119.9979
5149,Dy4Ga4Pd4,174.131,62,4.476478,6.928133,7.635262,90.0,90.0,90.0
5150,Ca1Pd2Si2,326.738,139,5.7191089999999996,5.7191089999999996,5.7191089999999996,136.3411,136.3411,63.45347
5151,In2Pt4Tb2,200.711,194,4.55886,4.558917,9.037496,90.0,90.0,119.9996
5152,Au1C2Cs1,170.112,123,4.867438,4.867438,5.243295,90.0,90.0,90.0
5153,Ba2Ce2N4,338.968,194,3.693339,3.693339,12.7747,90.0,90.0,119.9989
5154,K2Sb2Sn2,171.366,186,4.477515,4.477453,13.2724,90.0,90.0,120.0005
5155,Cu2Dy1Ge2,327.009,139,5.922529,5.922529,5.922529,139.9101,139.9101,57.98989
5156,B1Lu1Rh3,389.5,221,4.152993,4.152993,4.152993,90.0,90.0,90.0
5157,Cu1Ge6Y2,340.266,38,10.9232,10.9232,4.114299,90.0,90.0,158.6773
5158,Ge4Pt4Th2,232.604,129,4.442404,4.442404,9.965902,90.0,90.0,90.0
5159,O14V4Y4,624.615,227,7.158977,7.158977,7.158977,60.0,60.0,60.0
5160,F2Ho2S2,358.929,129,3.764729,3.764729,6.832053,90.0,90.0,90.0
5161,F2La2S2,342.731,129,4.081953,4.081953,7.092207,90.0,90.0,90.0
5162,Ru1Sb1Ti1,275.947,216,4.366461,4.366461,4.366461,60.0,60.0,60.0
5163,F8Pb2Pd2,224.701,140,6.956138,6.956138,6.956138,129.3086,129.3086,74.51445
5164,Co1La1Si3,449.269,107,5.646439,5.646439,5.646439,136.6493,136.6493,62.97814
5165,Lu1Pt1Sb1,238.902,216,4.579849,4.579849,4.579849,60.0,60.0,60.0
5166,Lu6Os8Si26,414.369,223,8.738911,8.738911,8.738911,90.0,90.0,90.0
5167,Ag2Ga2S4,253.457,122,6.679135,6.679135,6.679135,128.1024,128.1024,76.45914
5168,Au1Li2Sn1,199.513,216,4.665736,4.665736,4.665736,60.0,60.0,60.0
5169,Ga4Se8Sr2,208.442,66,6.360214,6.360214,11.11845,90.0,90.0,120.2888
5170,Ag2In2O4,258.166,194,3.325291,3.325291,12.83467,90.0,90.0,120.0011
5171,Al8B4Re12,354.421,227,7.618506,7.618506,7.618506,60.0,60.0,60.0
5172,Fe2Hf8P2,223.926,124,6.528086,6.528086,5.272411,90.0,90.0,90.0
5173,As1Ba1Pd1,205.739,187,4.392944,4.392944,4.79147,90.0,90.0,119.9999
5174,In2S6Zn3,276.032,156,3.8770249999999997,3.8770629999999997,18.33566,90.00085,89.99992,120.0002
5175,Co4Si4V4,628.351,62,3.528292,5.977791,6.767965,90.0,90.0,90.0
5176,Cu4Hf4Si4,381.23,62,3.898538,6.455762,7.300583,90.0,90.0,90.0
5177,P2Ru2Sr1,363.245,139,6.263114,6.263114,6.263114,142.0844,142.0844,54.70161
5178,Ba1Nb4O6,556.073,123,4.228743,4.228743,8.296299,90.0,90.0,90.0
5179,Ba2F8Pd2,230.648,140,7.140634,7.140634,7.140634,128.2012,128.2012,76.29934
5180,Be2C2N4,1675.21,122,4.390557,4.390557,4.390557,129.2509,129.2509,74.6072
5181,Al3Er3Ni3,286.809,189,6.969847,6.969896,3.756146,90.0,90.0,120.0002
5182,Ag1Cu4Yb1,209.29,216,5.105743,5.105743,5.105743,60.0,60.0,60.0
5183,B8Rh8Y2,473.041,137,5.319448,5.319448,7.447941,90.0,90.0,90.0
5184,Mg3Y3Zn3,287.516,189,7.558238,7.558238,4.170114,90.0,90.0,120.0013
5185,C2Co1Th1,419.846,38,3.8492759999999997,3.8492759999999997,3.946171,90.0,90.0,108.3284
5186,Ca1P2Ru2,463.393,139,5.685653,5.685653,5.685653,138.073,138.073,60.7912
5187,Cu3Nb1Te4,191.187,215,6.026241,6.026241,6.026241,90.0,90.0,90.0
5188,Al8C4Mo12,416.007,213,6.910223,6.910223,6.910223,90.0,90.0,90.0
5189,Dy4Ge4Mg2,320.899,127,7.267891,7.267891,4.244389,90.0,90.0,90.0
5190,In4Mn2S8,268.596,227,7.673085,7.673085,7.673085,60.0,60.0,60.0
5191,Cu2In1Lu1,238.554,225,4.622178,4.622178,4.622178,60.0,60.0,60.0
5192,Al4O8Zn2,751.727,227,5.731742,5.731742,5.731742,60.0,60.0,60.0
5193,C1Rh3Tb1,352.453,221,4.167472,4.167472,4.167472,90.0,90.0,90.0
5194,Al7Cu16Yb6,282.34,225,8.811081,8.811081,8.811081,60.0,60.0,60.0
5195,In2Se4Zn1,200.241,82,7.117227,7.117227,7.117227,131.9719,131.9719,70.27343
5196,Mg3Nb6O11,567.929,164,6.10189,6.10189,7.542429,89.99988,90.00012,120.0022
5197,F3Rb1Yb1,259.396,221,4.561705,4.561705,4.561705,90.0,90.0,90.0
5198,Ca6Rh8Sn26,199.9,223,9.907276,9.907276,9.907276,90.0,90.0,90.0
5199,Ni1Sb1Sc1,376.809,216,4.357151,4.357151,4.357151,60.0,60.0,60.0
5200,Ho16In4Rh4,209.697,216,9.59002,9.59002,9.59002,60.0,60.0,60.0
5201,Nb6Sn6Tb1,346.068,191,5.84331,5.84331,9.738552,90.0,90.0,120.0005
5202,Ga3Hf3Ni3,340.759,189,6.832921,6.832921,3.410975,90.0,90.0,120.0014
5203,Be1H3Na1,950.422,221,3.343824,3.343824,3.343824,90.0,90.0,90.0
5204,Ca1Cd2P2,315.166,164,4.304648,4.304648,7.046276,89.99781,90.00219,119.9968
5205,Ca4S12Zr4,381.806,62,6.586789,7.08376,9.666447,90.0,90.0,90.0
5206,Fe1Ga2Hf6,254.149,189,7.814258,7.814258,3.276186,90.0,90.0,120.0103
5207,Ca4Ga4Ge4,309.24,194,4.242295,4.242167,17.32138,90.0,90.0,120.001
5208,Al36Mg6W4,494.434,227,10.39972,10.39972,10.39972,60.0,60.0,60.0
5209,Ag3Pb3Y3,213.372,189,7.558312,7.558312,4.572927,90.0,90.0,120.0006
5210,Al2Pd5Y1,329.966,139,8.009847,8.009847,8.009847,150.0914,150.0914,42.80728
5211,Pd3Sc3Sn3,292.99,189,7.637342,7.637342,3.638963,90.0,90.0,119.9998
5212,Al8C2O8,701.973,36,5.189548,5.189548,9.174127,90.0,90.0,112.2306
5213,F6Na2Ni2,395.351,63,5.32602,5.32602,7.466701,90.0,90.0,146.5938
5214,Al4Ca12Sb12,252.094,62,4.526126,12.96051,14.33962,90.0,90.0,90.0
5215,Cs2F6Ge1,134.868,225,6.432217,6.432217,6.432217,60.0,60.0,60.0
5216,Co2Ga1Ta1,371.763,225,4.269786,4.269786,4.269786,60.0,60.0,60.0
5217,La2Tl2Zn2,234.304,194,4.813066,4.813066,8.018954,90.0,90.0,120.0001
5218,Ge2Pd2Th1,270.314,139,5.990846,5.990846,5.990846,137.215,137.215,62.1074
5219,Ho3In1N1,309.154,221,4.791749,4.791749,4.791749,90.0,90.0,90.0
5220,Ni6Sb8Zr6,346.689,220,7.886189,7.886189,7.886189,109.4712,109.4712,109.4712
5221,Mo2Pt4Si6,396.71,26,3.4977359999999997,5.522011,9.228335,90.00011,90.0,90.0
5222,Al1Co2Nb1,476.419,225,4.291436,4.291436,4.291436,60.0,60.0,60.0
5223,Er6Ge26Ir8,327.796,223,8.989826,8.989826,8.989826,90.0,90.0,90.0
5224,Ba4Ca4Ge4,210.816,62,5.097344,8.584648,9.26929,90.0,90.0,90.0
5225,C1Pu1Rh3,127.715,221,4.168867,4.168867,4.168867,90.0,90.0,90.0
5226,Ir4Mn12Si4,353.384,198,6.751998,6.751998,6.751998,90.0,90.0,90.0
5227,H3Mg1Ni1,511.372,221,3.31427,3.31427,3.31427,90.0,90.0,90.0
5228,Ca3Ga4Ni4,298.936,217,6.376642,6.376642,6.376642,109.4712,109.4712,109.4712
5229,Pt4Se4Si4,342.15,29,5.917906,5.969937,6.080757,90.0,90.0,90.0
5230,Ba1Os2P2,274.343,139,6.753257,6.753257,6.753257,144.7891,144.7891,50.64888
5231,Cu2Hf1In1,282.913,225,4.51679,4.51679,4.51679,60.0,60.0,60.0
5232,Al16Pt7Ti6,402.445,225,8.653951,8.653951,8.653951,60.0,60.0,60.0
5233,As4Pd4Se4,249.877,198,6.182105,6.182105,6.182105,90.0,90.0,90.0
5234,Br2La10Sn6,215.862,193,9.780364,9.780424,7.063959,90.0,90.0,119.9998
5235,Bi4Fe4O12,403.414,62,5.503394,5.742318,7.9031,90.0,90.0,90.0
5236,B1Ir3Sc1,372.415,221,4.135597,4.135597,4.135597,90.0,90.0,90.0
5237,Cu4Mg1Sn1,353.646,216,5.034617,5.034617,5.034617,60.0,60.0,60.0
5238,Ca3N1Sn1,202.479,221,5.911984,5.911984,5.911984,90.0,90.0,90.0
5239,Ca1Cs1H3,310.26,221,4.606335,4.606335,4.606335,90.0,90.0,90.0
5240,Al1Co2Ta1,427.572,225,4.270584,4.270584,4.270584,60.0,60.0,60.0
5241,As1Cd1Pd5,266.501,123,4.023709,4.023709,7.078638,90.0,90.0,90.0
5242,Ge3Hf3Rh3,309.071,189,6.619251,6.619251,3.920417,90.0,90.0,120.0003
5243,H3Pd1Yb1,315.577,221,3.7149419999999997,3.7149419999999997,3.7149419999999997,90.0,90.0,90.0
5244,Ag2Sn2Tb2,238.433,186,4.782584,4.782859,7.463205,90.0,90.0,119.9981
5245,Cu2Rh4Se8,213.536,227,7.375303,7.375303,7.375303,60.0,60.0,60.0
5246,Hf1In1Ni2,284.887,225,4.40936,4.40936,4.40936,60.0,60.0,60.0
5247,As2Rh2Sr1,224.626,139,6.3305,6.3305,6.3305,140.8533,140.8533,56.55992
5248,F6Ni1Rb2,186.487,225,6.110538,6.110538,6.110538,60.0,60.0,60.0
5249,Ga4Pt4Y4,212.172,62,4.435718,6.924521,7.661065,90.0,90.0,90.0
5250,Au2Dy1In1,154.294,225,4.923624,4.923624,4.923624,60.0,60.0,60.0
5251,Re3Si3Ta3,378.87,189,6.887929,6.887929,3.327587,90.0,90.0,120.0
5252,Fe4Hf4Si4,366.881,62,3.647944,6.732448,7.716498,90.0,90.0,90.0
5253,Ga4Li4Se8,235.118,33,6.640296,6.946413,8.347534,90.0,90.0,90.0
5254,Mo16N4Ni8,470.253,227,7.975604,7.975604,7.975604,60.0,60.0,60.0
5255,Ba2F8Ni2,313.549,36,7.690239,7.690239,5.895362,90.0,90.0,148.2858
5256,Hf4Mo4Si4,409.86,62,3.510766,6.967404,8.221606,90.0,90.0,90.0
5257,Co1In8Y2,233.691,123,4.575599,4.575599,12.1823,90.0,90.0,90.0
5258,Al1Ba1Ge1,291.587,187,4.380117,4.380175,5.183809,90.0,90.0,119.9996
5259,Er1Pd1Sb1,242.351,216,4.630208,4.630208,4.630208,60.0,60.0,60.0
5260,La2Pd4Sb4,202.42,129,4.687599,4.687599,10.5581,90.0,90.0,90.0
5261,Mn1Ni1Sb1,275.784,216,4.258724,4.258724,4.258724,60.0,60.0,60.0
5262,C1Sn1Y3,377.163,221,4.904558,4.904558,4.904558,90.0,90.0,90.0
5263,Sn6V6Y1,378.868,191,5.570278,5.570237,9.401966,90.0,90.0,120.0002
5264,Ge4Mg4N8,629.125,33,5.227196,5.551732,6.675813,90.0,90.0,90.0
5265,La6Sb10Zr2,222.566,193,9.716005,9.71612,6.414662,90.0,90.0,119.9996
5266,Al8Ba4Ge8,300.431,62,4.3184249999999995,10.26206,11.06674,90.0,90.0,90.0
5267,Mn1O3Sr1,588.455,221,3.888286,3.888286,3.888286,90.0,90.0,90.0
5268,C1Pb1Pd3,218.246,221,4.280797,4.280797,4.280797,90.0,90.0,90.0
5269,Ni1Sc6Te2,313.485,189,7.919975,7.919975,3.781879,90.0,90.0,120.001
5270,Ru3Sc3Si3,531.935,189,6.979115,6.979115,3.392149,90.0,90.0,120.0001
5271,Ag2In1Sc1,179.978,225,4.828689,4.828689,4.828689,60.0,60.0,60.0
5272,Ga1O3Pr1,370.95,221,4.331693,4.331693,4.331693,90.0,90.0,90.0
5273,Mg2O12Sb4,594.037,136,4.72742,4.72742,9.386858,90.0,90.0,90.0
5274,Co1O3Sr1,482.922,221,3.8678600000000003,3.8678600000000003,3.8678600000000003,90.0,90.0,90.0
5275,As4Cu4S4,290.488,62,3.8174349999999997,5.505446,11.42297,90.0,90.0,90.0
5276,Cu2Li1P2,374.473,139,5.518249,5.518249,5.518249,138.6479,138.6479,59.91213
5277,Au6Dy6Sb8,214.329,220,8.583704000000001,8.583704000000001,8.583704000000001,109.4712,109.4712,109.4712
5278,Ba1O3Pr1,375.018,221,4.478504,4.478504,4.478504,90.0,90.0,90.0
5279,In3La3Pd3,184.899,189,7.820085,7.82006,4.196571,90.0,90.0,120.0001
5280,O6Sr2Zr2,546.964,140,5.902653,5.902653,5.902653,120.7937,120.7937,88.63075
5281,Cr4Se8Zn2,286.955,227,7.537615,7.537615,7.537615,60.0,60.0,60.0
5282,O14Pt4Tl4,390.38,227,7.29048,7.29048,7.29048,60.0,60.0,60.0
5283,Cu2Ga2O4,446.131,194,3.001784,3.001734,11.51398,90.0,90.0,120.0005
5284,Rb2Te4Y2,178.898,194,4.524461,4.524461,17.14659,90.0,90.0,119.9997
5285,Cd1F3Rb1,279.219,221,4.487885,4.487885,4.487885,90.0,90.0,90.0
5286,Na2O6Ta2,566.343,127,5.574639,5.574639,3.99987,90.0,90.0,90.0
5287,In1Ni2Zr1,290.22,225,4.44463,4.44463,4.44463,60.0,60.0,60.0
5288,Cu3Nb1S4,280.034,215,5.563359,5.563359,5.563359,90.0,90.0,90.0
5289,Nb4P4Zr4,481.418,62,3.586992,6.921384,8.359971999999999,90.0,90.0,90.0
5290,Ba2Li2Sb2,231.818,194,4.945656,4.94558,9.195914,90.0,90.0,120.0005
5291,Cu12N4Pd1,312.378,123,7.448906,7.448906,3.96447,90.0,90.0,90.0
5292,Cl6Cs2Zr1,120.358,225,7.626546,7.626546,7.626546,60.0,60.0,60.0
5293,K4O12Sb4,526.166,227,7.511579,7.511579,7.511579,60.0,60.0,60.0
5294,Al8C8Si2,687.966,186,3.326584,3.326548,21.92307,90.0,90.0,120.0004
5295,Ag1Al1S2,334.433,156,3.549545,3.549514,6.930868,90.00259,90.0,120.0003
5296,S4Se4U4,251.19,62,4.238242,7.441959,8.68324,90.0,90.0,90.0
5297,Er1Rh2Si2,412.125,139,5.714465,5.714465,5.714465,138.6631,138.6631,59.88892
5298,Er1Os2Si2,334.406,139,5.598021,5.598021,5.598021,136.0914,136.0914,63.83909
5299,As2C2Nb4,522.294,194,3.348646,3.348724,12.03182,90.0,90.0,120.0008
5300,Ho1Ni1Sb1,300.814,216,4.463893,4.463893,4.463893,60.0,60.0,60.0
5301,Er4O14Ru4,474.893,227,7.218597,7.218597,7.218597,60.0,60.0,60.0
5302,N2S1Th2,303.385,164,4.152316,4.152346,7.122196,89.99762,90.0,119.9998
5303,Cd4Co4Ho16,193.166,216,9.423687,9.423687,9.423687,60.0,60.0,60.0
5304,Au6K2Sn6,134.286,59,4.822944,7.887577,9.564563,90.0,90.0,90.0
5305,Mg2O6Si2,842.1,63,4.792725,4.792725,6.731801,90.0,90.0,147.1067
5306,Mn1Rh1Sb1,244.374,216,4.380224,4.380224,4.380224,60.0,60.0,60.0
5307,Dy2Pd2Sb2,237.969,186,4.5945920000000005,4.5945920000000005,7.408382,90.0,90.0,119.9988
5308,Co4Nb4P4,534.536,62,3.611388,6.1590679999999995,6.965178,90.0,90.0,90.0
5309,B8Ho4Os4,451.715,62,5.303969,5.884616,6.35479,90.0,90.0,90.0
5310,N4Rh8Zr16,344.975,227,8.806138,8.806138,8.806138,60.0,60.0,60.0
5311,Li2Si4Y4,407.64,127,7.1678,7.1678,4.181195,90.0,90.0,90.0
5312,Ge6Ru7Sc4,393.853,229,7.101539,7.101539,7.101539,109.4712,109.4712,109.4712
5313,Nb8O24Zn4,497.175,60,5.056025,5.761282,14.23314,90.0,90.0,90.0
5314,B6Hf2Ni21,435.125,225,7.420287,7.420287,7.420287,60.0,60.0,60.0
5315,Ho4Pt8Si4,245.894,62,5.526063,6.915556,7.275315,90.0,90.0,90.0
5316,Ba1Ru2Sb2,259.835,139,6.777662,6.777662,6.777662,140.9967,140.9967,56.34302
5317,Au2In1Y1,158.174,225,4.933228,4.933228,4.933228,60.0,60.0,60.0