,full_formula,band_gap,spacegroup.number,structure.lattice.a,structure.lattice.b,structure.lattice.c,structure.lattice.alpha,structure.lattice.beta,structure.lattice.gamma
9056,Fe2S10U4,0.5538000000000001,15,8.00276,8.00276,7.232101,82.79695,82.79695,46.27962
9057,Bi4Cr4O12,1.2981,15,5.574615,5.574615,9.775381,73.83766,73.83766,60.22255
9058,Ca1Cs2H4,2.9971,139,8.417336,8.417336,8.417336,148.2566,148.2566,45.50668
9059,F3P1Sb1,1.1342,221,4.519857,4.519857,4.519857,90.0,90.0,90.0
9060,Cr4O8Zn2,2.6330999999999998,227,5.952395,5.952395,5.952395,60.0,60.0,60.0
9061,Bi4In4O12,2.4939999999999998,62,5.664871,6.069183,8.189969,90.0,90.0,90.0
9062,Al24O44Sr8,4.1355,58,4.931745,8.487557,22.17593,90.0,90.0,90.0
9063,Ba1O3Ti1,2.1383,99,4.057281,4.057281,4.061258,90.0,90.0,90.0
9064,Hf1Os2Si1,0.2952,225,4.403517,4.403517,4.403517,60.0,60.0,60.0
9065,Ba4N8O24,3.5624000000000002,205,8.252801999999999,8.252801999999999,8.252801999999999,90.0,90.0,90.0
9066,O3Sr1Tc1,0.11410000000000001,221,4.045723,4.045723,4.045723,90.0,90.0,90.0
9067,Al8O36Y16,4.3249,14,10.55883,7.434722,11.26311,71.51453,90.0,90.0
9068,Cl36Ta4Te4,2.9058,15,11.9181,11.9181,20.60021,73.37034,73.37034,33.82906
9069,Cs2Pt1Te2,1.2344,71,7.378837,7.378837,7.378837,147.8532,109.6393,79.468
9070,In1Pt1Ta1,0.9397000000000001,216,4.431594,4.431594,4.431594,60.0,60.0,60.0
9071,Rb1S2Ti1,1.9154,160,7.912341,7.912341,7.912341,27.94635,27.94635,27.94635
9072,Mn8O20Y4,1.0711,55,5.792774,7.370683,8.585349,90.0,90.0,90.0
9073,As4Cd2Ge2,0.0342,122,7.16005,7.16005,7.16005,129.8711,129.8711,73.61285
9074,Al2Cu2S4,2.0697,122,6.494097,6.494097,6.494097,131.3127,131.3127,71.31676
9075,O19Sr5Ti7,2.3055,47,3.857699,5.6536349999999995,32.53007,90.0,90.0,90.0
9076,Eu1O3Ti1,0.7216,221,3.9664989999999998,3.9664989999999998,3.9664989999999998,90.0,90.0,90.0
9077,Na4Ni2O4,2.3481,36,5.290903,5.290903,8.312177,90.0,90.0,148.8239
9078,B16Li8O28,5.6182,110,8.693755,8.693808,8.693744,113.1583,113.1587,102.3245
9079,Ag1Cl1O4,3.6118,121,4.968827,4.968827,4.968827,118.5654,118.5654,92.50322
9080,Cd2In4S8,1.1992,227,7.766475,7.766475,7.766475,60.0,60.0,60.0
9081,C2Na4O6,3.824,12,5.228207,5.228207,6.143326,79.75782,79.75782,61.38107
9082,Cr1Ge1Hf2,0.0352,216,4.574637,4.574637,4.574637,60.0,60.0,60.0
9083,Ge1Ir1Nb1,0.8594,216,4.245581,4.245581,4.245581,60.0,60.0,60.0
9084,Cd1F6Pt1,2.7091000000000003,148,5.793048,5.793048,5.793048,53.89742,53.89742,53.89742
9085,O16Ta4Zn6,3.9889,15,6.11279,6.11279,9.592037,71.30087,71.30087,87.51169
9086,Cl2Hf2N2,2.2039,166,9.7403,9.7403,9.7403,21.26207,21.26207,21.26207
9087,F14Rb6Si2,5.6456,127,8.103986,8.103986,5.921817,90.0,90.0,90.0
9088,Bi4Cu4S8,0.717,62,3.956118,6.277756,14.46998,90.0,90.0,90.0
9089,Cr2Nd2O8,0.08950000000000001,141,6.16722,6.16722,6.16722,106.0876,106.0876,116.4737
9090,Cd8O28Te8,1.7973,2,7.538407,8.492881,10.10772,86.5514,78.85869,77.1956
9091,F12Hg8O2,0.1958,186,7.930078,7.929887,6.161024,90.0,90.0,120.0008
9092,Al8O20Si4,4.8425,58,5.611949,7.873536,7.977703,90.0,90.0,90.0
9093,I12Mn4Tl4,2.3091,62,4.352411,10.25559,16.50293,90.0,90.0,90.0
9094,Os1Sb1Ta1,0.8034,216,4.410022,4.410022,4.410022,60.0,60.0,60.0
9095,Al2La2O6,3.1484,167,5.415524,5.415884,5.415884,60.0,59.9978,59.9978
9096,B12O20Tl4,4.2217,19,5.46693,8.403499,10.40185,90.0,90.0,90.0
9097,Eu2O6Ti2,0.7659,140,5.611647,5.611647,5.611647,120.0627,120.0627,89.89136
9098,Ba4O16Y8,3.2446,62,3.48847,10.51928,12.23315,90.0,90.0,90.0
9099,B2O6Sc2,4.6182,167,5.9205559999999995,5.9205559999999995,5.9205559999999995,48.20668,48.20668,48.20668
9100,Cl4Cr1Rb2,1.0663,139,8.240524,8.240524,8.240524,144.4506,144.4506,51.15408
9101,F24K4P4,7.196,205,7.850364,7.850364,7.850364,90.0,90.0,90.0
9102,Al20O48Y12,4.4958,230,10.50092,10.50092,10.50092,109.4712,109.4712,109.4712
9103,O3Sr1Zr1,3.2132,221,4.199412,4.199412,4.199412,90.0,90.0,90.0
9104,Fe2S4Tl2,0.4315,12,6.755732,6.755732,6.828395,66.08338,66.08338,51.80002
9105,Fe3O12P3,2.5233,152,5.199656,5.199656,11.55344,90.0,90.0,120.0
9106,Cl8N2V2,1.583,2,7.99265,6.02512,7.611168,113.7947,111.0509,85.86656
9107,N9O27Rb9,3.2183,144,10.68571,10.68571,7.629389,90.0,90.0,120.0
9108,Au2Cl6Cs2,0.8799,139,7.783494,7.783494,7.783494,121.6229,121.6229,87.21137
9109,As3Ga3O12,3.1109,152,5.087416,5.087748,11.61102,90.00213,90.00015,119.9992
9110,Cr2Ge2Te6,0.19770000000000001,148,8.305042,8.305042,8.305042,49.62928,49.62928,49.62928
9111,Al2Cl2O2,2.3992,65,7.15689,7.15689,2.981524,90.0,90.0,126.684
9112,I2Li2O6,3.6263,173,5.528884,5.529011,5.295082,90.0,90.0,120.002
9113,Cu2Ga2Te4,0.435,122,7.445208,7.445208,7.445208,131.5397,131.5397,70.95701
9114,Al4Ba4F20,7.3216,19,5.031774,5.693385,13.93838,90.0,90.0,90.0
9115,Na8Nb8O24,1.885,17,5.64441,5.639152,15.9317,90.0,90.0,90.0
9116,In2O18P6,4.5343,9,7.660631,7.660631,9.805463,57.5306,57.5306,51.99752
9117,Na1Nb1O3,1.8391000000000002,221,3.9861500000000003,3.9861500000000003,3.9861500000000003,90.0,90.0,90.0
9118,Cu3S4Ta1,2.17,215,5.579686,5.579686,5.579686,90.0,90.0,90.0
9119,Cl4Re12S16,1.1973,14,11.86983,6.438019,12.5895,79.25862,90.0,90.0
9120,Na8O12Se4,4.2405,14,10.09242,4.975542,6.956543,89.62802,90.0,90.0
9121,Cd2Cr4S8,1.0637,227,7.361204,7.361204,7.361204,60.0,60.0,60.0
9122,Ba1H9Re1,2.8869,155,4.756839,4.756839,4.756839,95.16695,95.16695,95.16695
9123,N2Na2O6,2.956,167,6.422287,6.422223,6.422173,47.32763,47.32964,47.33139
9124,Ca2Mo2O8,3.3292,88,6.904295,6.904295,6.904295,134.8755,134.8755,65.72366
9125,Ba8Ge4S16,2.2385,62,6.89933,9.098377,12.59053,90.0,90.0,90.0
9126,F6Li1Os1,2.3559,148,5.514803,5.514803,5.514803,56.60936,56.60936,56.60936
9127,B12O20Rb4,5.2909,19,5.570628,8.351377,10.36877,90.0,90.0,90.0
9128,H8Li16N8,2.5968999999999998,74,7.13991,7.13994,7.139992,120.2821,119.9495,89.80067
9129,Ga8S16Tl8,1.7767,15,7.389965,7.389965,15.36574,83.05148,83.05148,89.91015
9130,F3Li1Tc1,1.9453,221,3.805427,3.805427,3.805427,90.0,90.0,90.0
9131,Hg6Te8Tl4,0.4721,15,7.54642,7.54642,13.07377,82.3877,81.17605,120.3147
9132,Cr1K1S2,1.4762,166,7.444836,7.444836,7.444836,28.79963,28.79963,28.79963
9133,Al2Br8Cu2,2.7305,112,5.955167,5.955167,10.61877,90.0,90.0,90.0
9134,Al4O8Zn2,4.4912,227,5.731173,5.731173,5.731173,60.0,60.0,60.0
9135,N4O4Ta4,2.4158,12,6.8894,6.8894,6.784228,73.11537,73.11537,33.04094
9136,Al4O8Zn2,4.4914,227,5.731181,5.731181,5.731181,60.0,60.0,60.0
9137,As10Br18Hg19,1.1105,2,14.61004,11.57357,11.60681,71.75733,56.66424,60.61307
9138,Na1Nb1O3,1.8406,221,3.982209,3.982209,3.989473,90.0,90.0,89.98808
9139,Al2Cu2Se4,1.2536,122,6.849924,6.849924,6.849924,131.0571,131.0571,71.72236
9140,Al8O20Si4,4.843,58,5.611556,7.874279,7.977071,90.0,90.0,90.0
9141,B6Cs2H6,4.3169,225,6.8575,6.8575,6.8575,60.0,60.0,60.0
9142,Er4O12V4,0.7914,62,5.294769,5.665491,7.634465,90.0,90.0,90.0
9143,Cd4O14Ta4,2.1164,227,7.449821,7.449821,7.449821,60.0,60.0,60.0
9144,Cr7O24P6,0.6436000000000001,2,9.613002999999999,6.353493,8.154311,79.37687,65.65716,69.52288
9145,Ag4Te8Tl12,0.5854,14,7.637475,10.06403,11.22002,63.37659,90.0,90.0
9146,Bi8Cl28Se8,1.3464,85,10.9982,10.9982,10.5481,90.0,90.0,90.0
9147,Co4O8Rb12,1.4921,62,6.331267,7.8370809999999995,12.39792,90.0,90.0,90.0
9148,C2Ca2O6,4.9935,167,6.476551,6.476551,6.476551,45.72678,45.72678,45.72678
9149,I8Li8O24,3.5859,86,10.01353,10.01353,6.761405,90.0,90.0,90.0
9150,Cl16I4K4,2.3007,14,14.34443,6.429126,13.24732,73.83088,90.0,90.0
9151,B16Ce4O30,5.0446,13,4.251083,9.260309,11.82827,72.37536,90.0,90.0
9152,Be6F24Li12,7.5901,148,8.368018,8.368018,8.368018,107.7813,107.7813,107.7813
9153,O14Ti4Y4,3.2951,227,7.242307,7.242307,7.242307,60.0,60.0,60.0
9154,Au2F8Na2,2.6195,140,6.722533,6.722533,6.722533,129.2728,129.2728,74.57205
9155,Ag28P4Se24,0.6704,198,10.98519,10.98519,10.98519,90.0,90.0,90.0
9156,Rb8Re12S26,1.3445,15,9.817436,9.817436,14.15856,85.17995,85.17995,118.9742
9157,Al1H6Pr1,2.1023,166,4.254793,4.254793,4.254793,98.45676,98.45676,98.45676
9158,Ba1O3Ti1,2.1368,221,4.059831,4.059831,4.059831,90.0,90.0,90.0
9159,Ca8O20U4,3.1343,14,5.4957519999999995,8.041976,11.56027,71.39406,90.0,90.0
9160,Er2O7Si2,4.7952,12,5.647699,5.647699,4.773142,82.816,82.816,105.1991
9161,O2Pr2Se1,1.8447,164,4.035507,4.034237,7.130368,89.99805,90.0,120.0104
9162,O28V8Zr4,2.5747,205,9.059435,9.059435,9.059435,90.0,90.0,90.0
9163,Cs1F3Nb1,0.4324,221,4.521385,4.521385,4.521385,90.0,90.0,90.0
9164,Ba4Dy8S16,1.7476,62,4.05528,12.34597,14.58707,90.0,90.0,90.0
9165,B4H16Hf1,5.7212,215,6.019132,6.019132,6.019132,90.0,90.0,90.0
9166,B2C2Li2,0.8535,194,2.750321,2.750254,7.049033,90.0,90.0,120.0008
9167,Mg2O6Ti2,3.8262,148,5.5517710000000005,5.5517710000000005,5.5517710000000005,55.16905,55.16905,55.16905
9168,Ca8Mn4O16,0.3557,142,12.7994,12.7994,12.7994,156.3363,156.3363,33.71241
9169,Ca4Mn8O16,1.0965,57,3.199201,9.840724,10.19146,90.0,90.0,90.0
9170,F12Li4Rh2,1.1882,14,4.730726,4.725988,10.40565,62.98813,90.16269,90.0
9171,O4Sn1Sr2,2.1776,139,7.003277,7.003277,7.003277,145.2898,145.2898,49.90281
9172,K1La1O2,3.6501,166,6.714656,6.714656,6.714656,32.54455,32.54455,32.54455
9173,Er2O8P2,5.9282,141,5.738893,5.738893,5.738893,105.953,105.953,116.7632
9174,Ag1Bi1Se2,0.43310000000000004,166,7.107471,7.107471,7.107471,34.29311,34.29311,34.29311
9175,Dy8P8S32,2.1633,142,12.224920000000001,12.224920000000001,12.224920000000001,127.5866,127.5866,77.29566
9176,Ag1F3Ni1,2.0248,221,4.008611,4.008611,4.008611,90.0,90.0,90.0
9177,H2K2O2,3.4792,11,3.910261,4.061422,5.335688,67.64686,90.0,90.0
9178,Ge2Mg2O6,2.4252000000000002,63,4.944061,4.944061,7.028697,90.0,90.0,146.464
9179,Li2Nb2O6,3.4462,161,5.549399,5.549399,5.549399,55.92316,55.92316,55.92316
9180,C8Cl24F8,4.8936,61,6.294923,10.23815,16.79771,90.0,90.0,90.0
9181,O16P4Zn6,4.282,14,8.354914,5.0195,7.640089,83.65063,90.0,90.0
9182,I10K2Sn4,1.5175,140,10.30352,10.30352,10.30352,128.047,128.047,76.54893
9183,Mo2O8Sr2,3.664,88,7.228472,7.228472,7.228472,135.3799,135.3799,64.94048
9184,Ca12O28Si8,4.6225000000000005,46,12.79116,12.79116,12.79116,156.8273,126.3237,59.22494
9185,As4K4Pt2,0.6602,63,7.837265,7.837265,6.243612,90.0,90.0,130.6189
9186,Eu2H6Ru1,1.7837,225,5.310944,5.310944,5.310944,60.0,60.0,60.0
9187,C2Na2Pd1,0.9244,164,4.469086,4.469086,5.292076,90.00049,89.99951,120.0011
9188,As2O8Tl6,2.5566,173,9.001269,9.000197,5.4249600000000004,90.0,90.0,120.0402
9189,Li2Nb2O6,2.6827,167,5.514566,5.514459,5.514259,56.84981,56.85103,56.84804
9190,K12Mn2S8,1.8753000000000002,186,9.971824,9.971824,7.761613,90.0,90.0,119.9998
9191,Ca2O6Ti2,2.7836,140,5.517487,5.517487,5.454915,119.6254,119.6254,91.29248
9192,Ba4Lu8S16,1.7267000000000001,62,3.970709,12.17592,14.3349,90.0,90.0,90.0
9193,Ba6N2Sb2,0.7051000000000001,194,7.670232,7.670251,6.753416,90.0,90.0,119.9999
9194,Ba2Br2F2,4.8809000000000005,129,4.570918,4.570918,7.596109,90.0,90.0,90.0
9195,As8Co8Se8,0.46190000000000003,61,5.778963,5.864795,11.539390000000001,90.0,90.0,90.0
9196,Rh4Sb4Se4,0.6407,198,6.254103,6.254103,6.254103,90.0,90.0,90.0
9197,K2O3Sn2,1.3227,166,6.005848,6.005848,6.005848,62.48609,62.48609,62.48609
9198,F3K1Zn1,5.1725,221,4.045743,4.045743,4.045743,90.0,90.0,90.0
9199,Ge12Rh8Se12,0.3423,148,8.657125,8.656934,8.65701,89.88674,89.88683,89.88561
9200,Cr4O16Sr4,1.3655,14,7.200432,6.961437,7.073582,84.90652,90.0,90.0
9201,Cl12Cu4K4,1.1292,14,13.95536,4.188929,8.931054,81.02922,90.0,90.0
9202,Ca1O3Zr1,3.2142,221,4.162,4.162,4.162,90.0,90.0,90.0
9203,Br4Hg8P12,0.9347000000000001,60,7.936986,8.171155,9.134074,90.0,90.0,90.0
9204,Na4O8Se2,3.3314,70,8.244618,7.099598,6.036064,77.28477,57.14023,45.57499
9205,Cs2O4U1,2.6388,139,8.16638,8.16638,8.16638,148.1854,148.1854,45.61179
9206,Be1O3Zr1,0.6233000000000001,221,3.469179,3.469179,3.469179,90.0,90.0,90.0
9207,La2Nb2O8,4.2503,88,7.047307,7.047307,7.047307,134.3398,134.3398,66.55779
9208,O14Sr2V6,2.0722,59,5.562423,5.372025,10.59416,90.0,90.0,90.0
9209,Na4O8S2,5.0019,63,5.335208,5.335208,7.03324,90.0,90.0,115.661
9210,Ba10Fe10O28,0.07050000000000001,63,5.771687,5.771687,23.66593,90.0,90.0,119.7265
9211,K3O4V1,3.6792,121,6.495674,6.495674,6.495674,127.7034,127.7034,77.10603
9212,Ag3O4V1,1.4665,121,6.143819,6.143819,6.143819,130.8466,130.8466,72.05687
9213,C20Mn4O20,2.5348,15,7.992652,7.992652,16.58573,79.61241,79.61241,53.75472
9214,Cd1O4U1,2.643,166,6.277517,6.277517,6.277517,36.55338,36.55338,36.55338
9215,Mn2P2S6,1.3731,12,6.141117,6.141117,7.162978,81.89204,81.89204,120.0007
9216,O28Si8Y8,4.6687,2,6.668767,12.17811,6.708144,94.36666,91.88991,91.30088
9217,Mg4O8Si2,4.3922,55,2.840987,5.049548,8.869431,90.0,90.0,90.0
9218,Au2F8Rb2,2.9565,140,7.509218,7.509218,7.509218,130.0555,130.0555,73.318
9219,In32S32Sn8,1.1596,205,12.6886,12.6886,12.6886,90.0,90.0,90.0
9220,Co1Sb1Ti1,0.8161,216,4.162092,4.162092,4.162092,60.0,60.0,60.0
9221,Ru1Sb1Ta1,0.8866,216,4.377608,4.377608,4.377608,60.0,60.0,60.0
9222,Ba4O16S4,5.9553,62,5.548438,7.273308,9.025512,90.0,90.0,90.0
9223,Al1Pd1Ta1,0.3161,216,4.305061,4.305061,4.305061,60.0,60.0,60.0
9224,In6O24Sb10,2.408,217,9.263803,9.263803,9.263803,109.4642,109.4642,109.4642
9225,Mn8Na8Se12,1.2585,15,10.58188,10.58188,7.416649,69.75563,69.75563,83.16679
9226,O14Pr6Sb2,2.5372,63,6.72809,6.72809,7.789194,90.0,90.0,110.5249
9227,H8N8S24,2.8914,62,7.480738,8.662514999999999,13.71456,90.0,90.0,90.0
9228,Br12Ta2Te4,1.1602000000000001,2,7.489648,7.608996,13.1598,82.14352,79.41369,79.78972
9229,F2Mg4N2,2.112,141,5.890554,5.890554,5.890554,137.9832,137.9832,60.92866
9230,S16Sr4Y8,1.8271000000000002,62,4.002492,12.0947,14.40014,90.0,90.0,90.0
9231,Na8O12Ru4,0.6975,15,5.466742,5.466742,10.98429,85.22947,85.22947,120.0862
9232,Na1O2Tl1,0.6254000000000001,166,5.918841,5.918841,5.918841,33.54019,33.54019,33.54019
9233,Cd1Rb2Se1,1.6326,225,5.954253,5.954253,5.954253,60.0,60.0,60.0
9234,Sb4Se8Tl4,0.6691,4,4.156524,9.276424,13.01031,70.83056,90.0,90.0
9235,Fe8P48W4,0.008700000000000001,60,5.719678,11.15937,13.81161,90.0,90.0,89.99855
9236,Ca1H3Rb1,3.259,221,4.518762,4.518762,4.518762,90.0,90.0,90.0
9237,B1H4Na1,6.6303,216,4.297387,4.297387,4.297387,60.0,60.0,60.0
9238,Li8O8Pb2,1.4474,63,5.606212,5.606212,6.625756,90.0,90.0,97.87684
9239,O12Sr4Zr4,3.4157,63,5.875205,5.875205,8.336546,90.0,90.0,90.55887
9240,Cr4O8Zn2,2.6330999999999998,227,5.952402,5.952402,5.952402,60.0,60.0,60.0
9241,Cd2O8W2,3.0818,13,6.013838,5.084693,5.15063,88.40606,90.0,90.0
9242,Ag4I4Te12,1.0159,53,5.056648,8.848609,16.50043,90.0,90.0,90.0
9243,As4Mn4O16,0.9641000000000001,14,10.37077,5.187096,7.49577,74.07451,90.0,90.0
9244,Ag1Li1Se1,0.3181,216,4.418789,4.418789,4.418789,60.0,60.0,60.0
9245,Cs3I9Sb2,1.5371000000000001,164,8.669866,8.669869,10.60417,89.9993,90.00069,119.9993
9246,Bi2Se1Te2,0.15030000000000002,166,10.49154,10.49154,10.49154,24.01919,24.01919,24.01919
9247,Br6K2Se1,1.6987,225,7.575099,7.575099,7.575099,60.0,60.0,60.0
9248,B4F16Rb4,7.6767,62,5.760858,7.424109,9.290424,90.0,90.0,90.0
9249,Hf8O24Pb8,2.7720000000000002,55,5.907266,8.247827,11.78486,90.0,90.0,90.0
9250,As2Mg2O7,3.0392,12,5.459208,5.459208,4.85077,81.9312,81.9312,105.0799
9251,Br2Gd2O2,4.3358,129,3.914719,3.914719,8.873931,90.0,90.0,90.0
9252,Bi8Li8O24,0.1928,56,5.033872,8.993584,10.93056,90.0,90.0,90.0
9253,Cl18Cs6Cu6,1.2168,178,7.365802,7.365802,18.4709,90.0,90.0,120.0
9254,K2O16V6,2.0522,11,8.633171,5.127846,7.937096,80.39038,90.0,90.0
9255,Mo8O32U4,0.5598000000000001,50,4.193462,7.455304,20.43053,90.0,90.0,90.0
9256,Al8O20Si4,4.8437,58,5.61174,7.871558,7.978503,90.0,90.0,90.0
9257,Li2Mn2O4,0.4625,71,6.820694,6.820694,6.820694,144.1976,151.3685,46.46808
9258,La2Ru1Sn1,0.1535,216,5.130069,5.130069,5.130069,60.0,60.0,60.0
9259,Cu4S8Y4,1.8556,19,3.974813,6.2810179999999995,13.50783,90.0,90.0,90.0
9260,Al4H4O8,3.9953000000000003,59,3.666109,2.911282,14.992280000000001,90.0,90.0,90.0
9261,Co1Sb1Ti1,0.8166,216,4.161569,4.161569,4.161569,60.0,60.0,60.0
9262,Cr5S8Tl1,0.7068,12,9.300044,9.300044,8.828751,75.00136,75.00136,21.92172
9263,O3Pb1Ti1,2.1638,99,3.993505,3.993505,4.090457,90.0,90.0,90.0
9264,C2Li4O6,5.0569,15,4.910078,4.910078,6.322683,69.67913,69.67913,61.76577
9265,Ba8Mn4Se12,1.6607,62,4.5371369999999995,9.307114,17.98727,90.00049,89.99999,90.0
9266,Eu1Mg2Sb2,0.16620000000000001,164,7.797762,4.745971,4.7497039999999995,59.97398,90.0,90.01928
9267,Ca8O16Si4,4.2518,14,6.068009,5.609169,12.14157,84.70111,90.0,90.0
9268,C24Cr4O24,3.6059,62,6.5030719999999995,11.44108,12.14892,90.0,90.0,90.0
9269,Bi4Pb1Te7,0.3805,164,4.482622,4.482621,24.52671,89.99903,90.00101,120.0001
9270,Bi2O8P2,3.8976,11,7.209656,4.807615,4.928648,82.73451,90.0,90.0
9271,Ag4O12V4,2.7578,15,7.450219,7.450219,5.629178,80.46198,80.46198,87.91185
9272,F6K2Pt1,3.0996,164,5.910491,5.910491,4.757868,89.99922,90.00078,120.0024
9273,Cd4Nb4O14,1.9621,227,7.227426,7.227426,7.227426,60.0,60.0,60.0
9274,Cs2Cu4I6,2.3727,63,8.609969,8.609969,6.126277,90.0,90.0,103.5327
9275,Cl6Cs2Ni2,2.8745000000000003,194,7.326944,7.326944,6.03617,90.0,90.0,120.0078
9276,Bi4In8S18,1.6633,11,3.971206,11.30192,16.49728,85.77556,90.0,90.0
9277,Cu8O16Se4,0.7675000000000001,14,8.165577,6.555126,8.288509,88.70758000000001,90.0,90.0
9278,B16Li8O28,5.6212,110,8.696265,8.696265,8.696236,113.0204,113.0196,102.5856
9279,O8Pb2W2,3.3764,88,7.281436,7.281436,7.281436,135.1572,135.1572,65.28606
9280,Cs2Cu2F8,1.8166,140,7.567598,7.567598,7.567598,130.3319,130.3319,72.87675
9281,La1Pt1Sb1,0.259,216,4.856074,4.856074,4.856074,60.0,60.0,60.0
9282,O16P4Pb6,3.5178000000000003,15,7.597825,7.597825,9.569676,79.35183,79.35183,45.76761
9283,H4Li8N4,2.5946,77,4.908409,4.908409,5.332504,90.0,90.0,90.0
9284,Bi4Cl4S4,1.9464000000000001,62,4.042221,8.043895,10.4029,90.0,90.0,90.0
9285,Ca2O6Si2,3.6985,140,5.113149,5.113149,5.113149,120.4844,120.4844,89.1631
9286,O8P2Sc2,4.8947,141,5.584474,5.584474,5.584474,106.0101,106.0101,116.6401
9287,Mg3Nb6O11,0.49250000000000005,164,6.102408,6.102411,7.546505,90.0,89.99999,120.0
9288,O16Pb6V4,3.0178,14,6.54946,7.512753,9.370585,67.84981,90.0,90.0
9289,Au2Cs2F8,2.9787,71,7.767488,7.767488,7.767488,137.0,127.2967,70.28779
9290,H6Li2Pt1,2.6473,225,4.70148,4.70148,4.70148,60.0,60.0,60.0
9291,F3K1Mg1,6.9475,221,4.054847,4.054847,4.054847,90.0,90.0,90.0
9292,Pt1Sb1Y1,0.29350000000000004,216,4.665776,4.665776,4.665776,60.0,60.0,60.0
9293,O8Si2Zr2,4.4653,141,5.621784,5.621784,5.621784,106.762,106.762,115.0372
9294,Cr1Na1O2,2.856,166,5.639755,5.639755,5.639755,31.28557,31.28557,31.28557
9295,Cd4O8Sn2,0.3593,55,3.281155,5.674899,10.11957,90.0,90.0,90.0
9296,O16Se4Tl8,3.2424,62,6.177526,8.149851,11.22012,90.0,90.0,90.0
9297,Mg8O16Si4,4.6491,62,4.801735,6.045026,10.32263,90.0,90.0,90.0
9298,Al2O8W2,1.4397,12,5.445355,5.445355,4.617337,88.04693,88.04693,64.24106
9299,Ba1O3Ti1,2.1419,99,4.055549,4.055549,4.062666,90.0,90.0,90.0
9300,H8N4Na4,1.847,70,6.864482,6.607015,6.126852,65.11356,60.82317,54.06327
9301,O2Pr2Se1,1.7769,164,4.032342,4.032342,7.144012,89.99473,90.00527,120.0127
9302,Al6O24V6,3.0436,2,9.664611,7.84695,6.615622,78.56962,66.40185,76.12145
9303,O14Pr4Zr4,3.4291,227,7.662275,7.662275,7.662275,60.0,60.0,60.0
9304,Na4O12Sb4,1.279,62,5.476367,5.535293,7.792243,90.0,90.0,90.0
9305,F6Rb2Zr1,6.6527,164,6.274919,6.274919,4.92985,90.00229,89.99771,120.0024
9306,Li24N16Sc8,2.1687,206,8.791353,8.791353,8.791353,109.4712,109.4712,109.4712
9307,Au1O3V1,0.027700000000000002,221,3.829546,3.829546,3.829546,90.0,90.0,90.0
9308,C4O8Rb4,2.935,55,3.6872920000000002,6.40862,11.48116,90.0,90.0,90.0
9309,F3K1Ti1,1.2036,221,4.620759,4.620759,4.620759,90.0,90.0,90.0
9310,Cr4Mg2O8,2.7635,141,5.99841,5.99841,5.99841,119.9293,119.9293,90.12254
9311,K8Re12Se24,1.1368,15,10.1253,10.1253,12.52895,88.74042,88.74042,60.66574
9312,Bi2O8P2,3.8886000000000003,11,7.206678,4.80611,4.934045,82.83077,90.0,90.0
9313,O3Pb1Ti1,2.1814,221,4.000522,4.000522,4.000522,90.0,90.0,90.0
9314,Cu2S4W1,1.5744,111,5.506096,5.506096,5.416751,90.0,90.0,90.0
9315,Cu1F4K2,0.8491000000000001,139,7.039078,7.039078,7.039078,145.232,145.232,49.98885
9316,C1Cd1N2,2.4213,166,5.299246,5.299246,5.299246,39.69859,39.69859,39.69859
9317,Cu1Ga1I4,2.0366,82,7.309465,7.309465,7.309465,127.9802,127.9802,76.65711
9318,Cl10Cs2Pb4,3.8332,140,9.665748,9.665748,9.665748,129.6424,129.6424,73.97911