,full_formula,DebyeTemp,spacegroup.number,structure.lattice.a,structure.lattice.b,structure.lattice.c,structure.lattice.alpha,structure.lattice.beta,structure.lattice.gamma
1715,Ga3Hf1,362.631,139,5.284241,5.284241,5.284241,136.9097,136.9097,62.57699
1716,N4Re2,702.222,127,4.408849,4.408849,2.666249,90.0,90.0,90.0
1717,B6Dy1,517.388,221,4.093536,4.093536,4.093536,90.0,90.0,90.0
1718,Zn44Zr2,350.675,227,9.853256,9.853256,9.853256,60.0,60.0,60.0
1719,Er1Se1,197.845,225,4.036299,4.036299,4.036299,60.0,60.0,60.0
1720,Al4Y8,288.845,62,5.105841,6.600682,9.515093,90.0,90.0,90.0
1721,As1Ga1,322.014,216,4.055377,4.055377,4.055377,60.0,60.0,60.0
1722,Pd3Y1,304.382,221,4.114519,4.114519,4.114519,90.0,90.0,90.0
1723,Hf6Si4,359.027,127,7.032373,7.032373,3.663272,90.0,90.0,90.0
1724,Te2Ti2,189.098,63,4.219581,4.219581,7.000969,90.0,90.0,119.5372
1725,Pd3Zr1,336.679,221,4.017008,4.017008,4.017008,90.0,90.0,90.0
1726,Ga8Nb10,424.415,193,8.011929,8.011929,5.489953,90.0,90.0,120.001
1727,Se2V2,335.464,194,3.8306649999999998,3.830622,6.29891,90.0,90.0,120.0005
1728,Cd1Se1,230.641,225,4.047333,4.047333,4.047333,60.0,60.0,60.0
1729,Ge4Pt2,262.001,58,3.000326,5.827956,6.227196,90.0,90.0,90.0
1730,As1Th1,204.21,221,3.742699,3.742699,3.742699,90.0,90.0,90.0
1731,Dy1Mg3,286.871,225,5.163039,5.163039,5.163039,60.0,60.0,60.0
1732,Fe2V6,378.671,223,4.679831,4.679831,4.679831,90.0,90.0,90.0
1733,O2Rb2,200.881,71,5.166541,5.166541,5.166541,130.9593,108.593,91.46884
1734,C1Nb1,734.153,225,3.171449,3.171449,3.171449,60.0,60.0,60.0
1735,Pd2Zr1,250.133,139,4.98914,4.98914,4.98914,139.4441,139.4441,58.69831
1736,Ce1O2,453.19,225,3.8851,3.8851,3.8851,60.0,60.0,60.0
1737,Bi6Tb10,184.702,193,9.223761,9.223761,6.385705,90.0,90.0,119.9998
1738,F6S1,108.497,229,5.245529,5.245529,5.245529,109.4712,109.4712,109.4712
1739,In3Th1,180.773,221,4.77467,4.77467,4.77467,90.0,90.0,90.0
1740,N1V1,1005.84,187,2.765289,2.7653090000000002,2.669664,90.0,90.0,119.9998
1741,La1Pb3,133.009,221,4.979138,4.979138,4.979138,90.0,90.0,90.0
1742,Pd8Sc16,291.17,227,8.965706,8.965706,8.965706,60.0,60.0,60.0
1743,As1Dy1,282.133,225,4.119568,4.119568,4.119568,60.0,60.0,60.0
1744,Au1Mn2,207.345,139,5.236543,5.236543,5.236543,141.6578,141.6578,55.34466
1745,Pb3Pr1,151.81,221,4.872918,4.872918,4.872918,90.0,90.0,90.0
1746,Ir4P8,491.906,14,5.821754,5.772252,5.879367,68.50838,90.00024,89.99882
1747,La1Se1,217.462,225,4.344145,4.344145,4.344145,60.0,60.0,60.0
1748,O6V4,647.946,146,5.548694,5.548694,5.548694,52.30719,52.30719,52.30719
1749,O1Zn1,495.02,225,2.977627,2.977627,2.977627,60.0,60.0,60.0
1750,Au8Ga4,157.995,36,9.221392,9.221392,7.024845,90.0,90.0,159.2188
1751,Hf1S2,185.76,164,3.645634,3.645634,6.411889,89.9956,90.0044,119.9962
1752,Mg24N16,755.585,206,8.681394,8.681394,8.681394,109.4712,109.4712,109.4712
1753,Er4Pt4,187.33,62,4.470127,5.502382,6.929872,90.0,90.0,90.0
1754,B2N2,914.275,194,2.512801,2.512798,7.884888,90.0,90.0,120.0
1755,H4Sr2,373.773,194,4.106289,4.106307,5.626355,90.0,90.0,119.9999
1756,B2N2,913.449,187,2.512542,2.512542,7.951361,90.0,90.0,120.0033
1757,Ni2Tb2,208.815,63,5.379834,5.379834,4.281297,90.0,90.0,140.1816
1758,Al4Sc2,585.515,227,5.404611,5.404611,5.404611,60.0,60.0,60.0
1759,Ag1Br1,139.554,225,4.123419,4.123419,4.123419,60.0,60.0,60.0
1760,Be1Se1,447.458,216,3.664776,3.664776,3.664776,60.0,60.0,60.0
1761,Ca24N16,442.104,206,9.937331,9.937331,9.937331,109.4712,109.4712,109.4712
1762,Hg33K3,59.989,221,10.28056,10.28056,10.28056,90.0,90.0,90.0
1763,La2Sn2,215.414,63,6.517182,6.517182,4.512238,90.0,90.0,136.5351
1764,Cs4Na8,95.4962,194,7.662614,7.662614,12.74757,90.0,90.0,120.0048
1765,Rh6Te4,281.799,63,6.568322,6.568322,7.721105,90.0,90.0,146.7191
1766,Os1V1,409.106,221,3.051852,3.051852,3.051852,90.0,90.0,90.0
1767,V1Zn3,296.05,221,3.829594,3.829594,3.829594,90.0,90.0,90.0
1768,Cl8Cu8,229.171,205,6.604921,6.604921,6.604921,90.0,90.0,90.0
1769,Rh6W2,400.918,194,5.500747,5.500747,4.365041,90.0,90.0,120.0005
1770,Al3Hf4,361.667,191,5.358489,5.358489,5.422429,90.0,90.0,119.9993
1771,Ge4Th2,265.358,65,8.724764,8.724764,4.23524,90.0,90.0,152.8036
1772,As4Os2,418.068,58,3.047006,5.464793,6.269834,90.0,90.0,90.0
1773,Al1Ni1,514.777,221,2.865513,2.865513,2.865513,90.0,90.0,90.0
1774,Rh4Th2,170.816,194,4.875389,4.87498,5.992829,90.0,90.0,120.0028
1775,Ag1Dy1,191.342,221,3.641785,3.641785,3.641785,90.0,90.0,90.0
1776,Au1Ga2,159.076,225,4.373517,4.373517,4.373517,60.0,60.0,60.0
1777,Hf4Re8,235.481,194,5.288785,5.288785,8.642631,90.0,90.0,119.9973
1778,Er6Ru4,200.567,176,7.507109,7.507093,4.694188,90.0,90.0,120.0003
1779,Al3Ho1,413.828,221,4.243996,4.243996,4.243996,90.0,90.0,90.0
1780,Co4Sb12,312.007,204,7.871498,7.871498,7.871498,109.4712,109.4712,109.4712
1781,Au1Y1,197.181,221,3.601455,3.601455,3.601455,90.0,90.0,90.0
1782,Be26Ca2,1221.26,226,7.241576,7.241576,7.241576,60.0,60.0,60.0
1783,Ir4Zr2,359.414,227,5.220104,5.220104,5.220104,60.0,60.0,60.0
1784,O2Pb1,227.72,225,3.82414,3.82414,3.82414,60.0,60.0,60.0
1785,C1Sc1,611.458,225,3.364823,3.364823,3.364823,60.0,60.0,60.0
1786,S4Ta2,196.669,194,3.363717,3.363407,14.22325,90.0,90.0,120.003
1787,Fe8Ta4,283.188,194,5.050634,5.044012,8.094828,90.0,90.0,120.0434
1788,C8Na8,358.798,142,7.916989,7.916989,7.916989,129.5121,129.5121,74.18796
1789,Co4Se8,382.958,205,5.834459,5.834459,5.834459,90.0,90.0,90.0
1790,Ca2In4,247.52,194,4.956183,4.956183,7.789982,90.0,90.0,119.9987
1791,P8Rh4,540.953,14,5.834355,5.776212,5.877141,67.19474,90.0,90.0
1792,Pd16S7,215.946,217,7.820288,7.820288,7.820288,109.4712,109.4712,109.4712
1793,K4O4,323.61,64,4.9136050000000004,4.9136050000000004,6.563981,90.0,90.0,91.99654
1794,Al2Th2,247.023,63,6.236862,6.236862,4.253051,90.0,90.0,137.8753
1795,Ru8Tb4,179.096,194,5.282043,5.282043,9.010375,90.0,90.0,120.0068
1796,Ho2Sn4,219.956,63,8.540122,8.540122,4.403117,90.0,90.0,149.7904
1797,Hg2Zr6,295.945,223,5.599793,5.599793,5.599793,90.0,90.0,90.0
1798,As4Mo5,403.919,87,7.057574,7.057574,7.057574,93.1571,93.1571,152.8547
1799,Os6Sn14,205.187,229,8.303809,8.303809,8.303809,109.4712,109.4712,109.4712
1800,Co4Sb12,311.896,204,7.871534,7.871534,7.871534,109.4712,109.4712,109.4712
1801,Mg1O1,896.392,225,3.008824,3.008824,3.008824,60.0,60.0,60.0
1802,N1Y1,331.463,216,3.744839,3.744839,3.744839,60.0,60.0,60.0
1803,Cl1Cu1,155.082,225,3.621698,3.621698,3.621698,60.0,60.0,60.0
1804,Ag1Gd1,159.026,221,3.685241,3.685241,3.685241,90.0,90.0,90.0
1805,Cu1Y1,272.586,221,3.4992419999999997,3.4992419999999997,3.4992419999999997,90.0,90.0,90.0
1806,Ge6Tb10,275.349,193,8.556135,8.556202,6.464243,90.0,90.0,119.9997
1807,As12Co4,437.175,204,7.144175,7.144175,7.144175,109.4712,109.4712,109.4712
1808,S8Ti4,435.121,205,6.071513,6.071513,6.071513,90.0,90.0,90.0
1809,O4Ti2,769.133,136,4.6518619999999995,4.6518619999999995,2.9710929999999998,90.0,90.0,90.0
1810,Mn1Pd1,252.315,221,3.184363,3.184363,3.184363,90.0,90.0,90.0
1811,Th4Zn2,155.184,140,6.229742,6.229742,6.229742,102.3449,102.3449,124.9184
1812,Hg4Sr12,103.794,62,7.46464,8.568828,11.15355,90.0,90.0,90.0
1813,Dy4Re8,192.321,194,5.437501,5.437438,8.845365,90.0,90.0,120.0004
1814,Lu1Pb2,107.714,139,6.596845,6.596845,6.596845,146.4204,146.4204,48.22278
1815,Ca1Se1,142.62,216,4.663587,4.663587,4.663587,60.0,60.0,60.0
1816,N1Nd1,430.432,225,3.661496,3.661496,3.661496,60.0,60.0,60.0
1817,As8Th6,264.147,220,7.845201,7.845201,7.845201,109.4712,109.4712,109.4712
1818,Ru8Zr4,270.397,194,5.170149,5.170149,8.62443,90.0,90.0,119.9984
1819,P12Rh4,561.874,204,6.977523,6.977523,6.977523,109.4712,109.4712,109.4712
1820,La1Pt3,196.763,221,4.241794,4.241794,4.241794,90.0,90.0,90.0
1821,N1Zr1,585.049,187,3.150766,3.150742,2.934331,90.0,90.0,119.9997
1822,Au4V2,190.135,63,5.106113,5.106113,4.877135,90.0,90.0,122.7426
1823,Te1U1,212.656,221,3.887301,3.887301,3.887301,90.0,90.0,90.0
1824,Al2As2,374.911,186,4.042704,4.042704,6.669795,90.0,90.0,120.0019
1825,Si2Sr4,232.38,194,5.419201,5.419201,7.539766,90.0,90.0,119.9986
1826,Ag4Ca2,178.531,74,6.016196,6.016196,6.016196,133.4282,104.5978,93.46979
1827,F2Ti1,499.475,225,3.72901,3.72901,3.72901,60.0,60.0,60.0
1828,C1W2,439.383,164,3.070022,3.070022,4.680375,90.0,90.0,120.0
1829,Li2Pt4,294.421,227,5.234019,5.234019,5.234019,60.0,60.0,60.0
1830,Ga4Os2,377.713,70,6.025541,4.979386,4.774793,76.27038,53.39519,50.33443
1831,Pd4Sn4,204.941,62,3.978828,6.316076,6.459872,90.0,90.0,90.0
1832,La2Pt4,229.569,227,5.562297,5.562297,5.562297,60.0,60.0,60.0
1833,Ir4Tb2,284.591,227,5.327344,5.327344,5.327344,60.0,60.0,60.0
1834,Ga2Pt6,232.755,140,5.560202,5.560202,5.560202,120.4757,120.4757,89.17797
1835,S1Se1,179.895,225,3.833241,3.833241,3.833241,60.0,60.0,60.0
1836,Bi12Ni4,120.629,62,4.154522,8.909752,11.46656,90.0,90.0,90.0
1837,Cu2Sc1,337.744,139,4.889876,4.889876,4.889876,140.3498,140.3498,57.32256
1838,Ni8Sc16,318.483,227,8.710376,8.710376,8.710376,60.0,60.0,60.0
1839,Ni3Si1,482.61,221,3.459695,3.459695,3.459695,90.0,90.0,90.0
1840,Er1Ir1,225.486,221,3.375823,3.375823,3.375823,90.0,90.0,90.0
1841,Au1Tb1,170.743,221,3.610055,3.610055,3.610055,90.0,90.0,90.0
1842,Mn1Pt3,266.412,221,3.952127,3.952127,3.952127,90.0,90.0,90.0
1843,O2Ti6,436.157,193,5.258479,5.258479,4.932469,90.0,90.0,120.0
1844,Be1Co1,671.603,221,2.559479,2.559479,2.559479,90.0,90.0,90.0
1845,Al3Y1,491.281,221,4.264052,4.264052,4.264052,90.0,90.0,90.0
1846,Ge4Th2,263.399,63,8.830356,8.830356,4.071707,90.0,90.0,152.3084
1847,Ge4O8,697.586,60,4.382186,4.842138,5.409192,90.0,90.0,90.0
1848,Au5Rb1,147.762,191,5.884037,5.884037,4.506796,90.0,90.0,120.0003
1849,C4W8,439.189,60,4.764896,5.264693,6.14134,90.0,90.0,90.0
1850,C1Hf1,538.948,225,3.287719,3.287719,3.287719,60.0,60.0,60.0
1851,H2Sc1,755.661,225,3.420977,3.420977,3.420977,60.0,60.0,60.0
1852,Pt4Sb8,247.753,205,6.528883,6.528883,6.528883,90.0,90.0,90.0
1853,O8Th4,310.991,62,3.874609,6.382612,7.432697,90.0,90.0,90.0
1854,N16Zn24,482.692,206,8.29501,8.29501,8.29501,109.4712,109.4712,109.4712
1855,B12U1,1000.58,225,5.271748,5.271748,5.271748,60.0,60.0,60.0
1856,Au4La8,128.544,62,5.201508,7.565576,9.600901,90.0,90.0,90.0
1857,O12Sb8,175.256,227,8.121922,8.121922,8.121922,60.0,60.0,60.0
1858,Mn1Rh1,359.01,221,3.117907,3.117907,3.117907,90.0,90.0,90.0
1859,H2Ho1,390.602,225,3.641445,3.641445,3.641445,60.0,60.0,60.0
1860,Mg1Tb2,179.115,139,6.910245,6.910245,6.910245,148.9567,148.9567,44.47498
1861,Al3Li1,552.733,221,4.025543,4.025543,4.025543,90.0,90.0,90.0
1862,C4Os2,617.175,194,2.874091,2.874091,7.98345,90.0,90.0,120.0005
1863,Fe8Ta4,272.36,194,5.038127,5.038525,8.125546,90.0,90.0,119.9974
1864,P8Th6,304.81,220,7.637496,7.637496,7.637496,109.4712,109.4712,109.4712
1865,Al1Ni3,397.529,221,3.544487,3.544487,3.544487,90.0,90.0,90.0
1866,As1Ge1,298.054,107,4.000498,4.000498,4.000498,124.369,124.369,82.58587
1867,Ge6Y10,347.757,193,8.524039,8.524039,6.426839,90.0,90.0,120.0005
1868,Er1P1,332.758,225,3.9693069999999997,3.9693069999999997,3.9693069999999997,60.0,60.0,60.0
1869,B6Yb1,569.497,221,4.143738,4.143738,4.143738,90.0,90.0,90.0
1870,Ga4Mg10,323.72,72,8.253648,8.253648,8.253648,137.2569,129.6868,68.09958
1871,Re10Si6,352.127,140,7.142692,7.142692,7.142692,96.91293,96.91293,139.4006
1872,Ca2H4,563.802,194,3.798972,3.798972,5.319726,90.0,90.0,119.9992
1873,Hg4Sr6,128.432,127,8.996425,8.996425,4.567988,90.0,90.0,90.0
1874,N8Re4,558.518,57,2.913561,4.983985,7.874381,90.0,90.0,90.0
1875,Rh3Zr1,419.228,221,3.946369,3.946369,3.946369,90.0,90.0,90.0
1876,Sn8Sr2,141.348,63,9.176035,9.176035,7.218073,90.0,90.0,149.8009
1877,Bi4Pd10,187.846,12,7.752193,7.752193,6.838431,64.96061,64.96061,44.36618
1878,Pt7Sb1,168.261,225,5.647006,5.647006,5.647006,60.0,60.0,60.0
1879,Mg1Pd1,269.956,221,3.171005,3.171005,3.171005,90.0,90.0,90.0
1880,Pt3Zn1,223.124,221,3.891972,3.891972,3.891972,90.0,90.0,90.0
1881,Pd4Sb8,187.907,205,6.554322,6.554322,6.554322,90.0,90.0,90.0
1882,C1Zr1,678.52,225,3.34045,3.34045,3.34045,60.0,60.0,60.0
1883,C2Y1,401.142,139,4.05216,4.05216,4.05216,125.9072,125.9072,80.04065
1884,Ca8Sn4,229.096,62,5.094761,7.935226,9.610145,90.0,90.0,90.0
1885,Be26Dy2,914.031,226,7.198591,7.198591,7.198591,60.0,60.0,60.0
1886,B1Os1,552.623,187,2.892478,2.892473,2.880235,90.0,90.0,120.0001
1887,Ba8Si46,383.843,223,10.39406,10.39406,10.39406,90.0,90.0,90.0
1888,As16Mg24,336.972,206,10.79584,10.79584,10.79584,109.4712,109.4712,109.4712
1889,In6S8,193.02,227,7.873259,7.873259,7.873259,60.0,60.0,60.0
1890,Cs4Pt2,87.3052,194,5.789658,5.789658,8.207733,90.0,90.0,119.9982
1891,Au1Zr2,251.101,139,6.328829,6.328829,6.328829,149.8556,149.8556,43.15348
1892,Ag2Ho1,188.234,139,5.371232,5.371232,5.371232,139.516,139.516,58.58894
1893,Ho2Rh4,288.584,227,5.295692,5.295692,5.295692,60.0,60.0,60.0
1894,As4Ni2,333.92,58,3.523425,4.8141680000000004,5.825672,90.0,90.0,90.0
1895,B12Zr1,1231.7,225,5.237293,5.237293,5.237293,60.0,60.0,60.0
1896,Rh1Zn1,369.797,221,2.973509,2.973509,2.973509,90.0,90.0,90.0
1897,As2Ti2,398.867,194,3.753367,3.7533700000000003,6.090827,90.0,90.0,120.0
1898,Hg4Th2,174.23,194,4.961534,4.961534,7.658043,90.0,90.0,119.9998
1899,Nb2Se8,275.162,124,5.990467,5.990467,6.488959,90.0,90.0,90.0
1900,Ho1Sb1,223.946,225,4.367717,4.367717,4.367717,60.0,60.0,60.0
1901,Sb1Sn1,193.045,225,4.4102689999999996,4.4102689999999996,4.4102689999999996,60.0,60.0,60.0
1902,O2Rb1,191.84,139,4.602966,4.602966,4.602966,125.8261,125.8261,80.17416
1903,N3V6,697.027,162,4.953315,4.95332,4.576797,90.00029,89.99941,120.0
1904,Rh4Tb2,286.3,227,5.31599,5.31599,5.31599,60.0,60.0,60.0
1905,Ge2Mo1,516.328,139,4.777155,4.777155,4.777155,138.9133,138.9133,59.507130000000004
1906,Ru8Sc4,277.357,194,5.189882,5.189882,8.64256,90.0,90.0,119.9975
1907,In1Pd1,210.831,221,3.279519,3.279519,3.279519,90.0,90.0,90.0
1908,Er1Sb1,223.601,225,4.352261,4.352261,4.352261,60.0,60.0,60.0
1909,Au1Hf2,229.853,139,6.287082,6.287082,6.287082,150.1613,150.1613,42.70461
1910,Au4Yb1,122.73,87,5.266888,5.266888,5.266888,99.75627,99.75627,131.3827
1911,Pd3Tb1,282.383,221,4.109251,4.109251,4.109251,90.0,90.0,90.0
1912,N8Ta4,323.536,205,5.148827,5.148827,5.148827,90.0,90.0,90.0
1913,C1W1,568.354,221,2.7457570000000002,2.7457570000000002,2.7457570000000002,90.0,90.0,90.0
1914,Ru4Tb12,175.224,62,6.336481,7.283874,9.27429,90.0,90.0,90.0
1915,Co1Ni1,404.134,221,2.848794,2.848794,2.848794,90.0,90.0,90.0
1916,Ba2S6,249.896,113,6.983635,6.983635,4.241751,90.0,90.0,90.0
1917,Be2Hf1,490.666,191,3.780271,3.780323,3.180312,90.0,90.0,119.9996
1918,Cr4Ti2,445.578,227,4.90472,4.90472,4.90472,60.0,60.0,60.0
1919,La1S1,268.798,225,4.189701,4.189701,4.189701,60.0,60.0,60.0
1920,P1Pu1,270.601,225,4.001647,4.001647,4.001647,60.0,60.0,60.0
1921,Ru10Si6,488.614,55,4.018212,5.291086,9.829308,90.0,90.0,90.0
1922,Ca12Hg4,151.066,62,6.85167,8.126393,10.22063,90.0,90.0,90.0
1923,Pt3Ti1,328.629,221,3.94491,3.94491,3.94491,90.0,90.0,90.0
1924,Os8Tb4,209.254,194,5.279748,5.279551,9.022083,90.0,90.0,120.0012
1925,Ca2F4,412.659,26,3.542647,4.166523,5.987489,90.0,90.0,90.0
1926,B4Mo4,723.087,141,8.843132,8.843132,8.843132,159.5489,159.5489,29.08002
1927,La2Pt2,172.899,63,5.933412,5.933412,4.6193100000000005,90.0,90.0,140.5113
1928,As1B1,669.439,216,3.406469,3.406469,3.406469,60.0,60.0,60.0
1929,H2W2,475.583,194,2.95997,2.959972,4.779213,90.0,90.0,120.0
1930,O4Ti2,769.133,136,4.6518619999999995,4.6518619999999995,2.9710929999999998,90.0,90.0,90.0
1931,Li1Pt1,276.021,187,2.759964,2.759964,4.170418,90.0,90.0,120.0
1932,C16Si16,1143.44,186,3.094217,3.094224,40.49245,90.0,90.0,119.9999
1933,Ca4Mg8,342.471,194,6.229442,6.229442,10.07331,90.0,90.0,120.0082
1934,Ag1Hf2,234.489,139,6.470954,6.470954,6.470954,151.2805,151.2805,41.06494
1935,Au1Sc1,244.458,221,3.431158,3.431158,3.431158,90.0,90.0,90.0
1936,O1Zn1,423.033,216,3.181166,3.181166,3.181166,60.0,60.0,60.0
1937,Pb1Te1,108.455,221,3.988012,3.988012,3.988012,90.0,90.0,90.0
1938,Br1Rb1,137.594,221,4.191541,4.191541,4.191541,90.0,90.0,90.0
1939,Dy1Hg1,144.181,221,3.720861,3.720861,3.720861,90.0,90.0,90.0
1940,P12Rh4,559.686,204,6.977446,6.977446,6.977446,109.4712,109.4712,109.4712
1941,Ag1F1,134.929,225,3.5449,3.5449,3.5449,60.0,60.0,60.0
1942,Au3Rb2,132.142,71,6.478829,6.478829,6.478829,133.8987,128.8026,71.33558
1943,Au1Dy1,173.744,221,3.593461,3.593461,3.593461,90.0,90.0,90.0
1944,Co2V6,529.996,223,4.667202,4.667202,4.667202,90.0,90.0,90.0
1945,Nd1P1,328.215,225,4.176943,4.176943,4.176943,60.0,60.0,60.0
1946,Al1Sc1,416.87,221,3.43389,3.43389,3.43389,90.0,90.0,90.0
1947,Mo1P1,345.9,225,3.656278,3.656278,3.656278,60.0,60.0,60.0
1948,Rb2Se1,140.631,225,5.741751,5.741751,5.741751,60.0,60.0,60.0
1949,Ho2Ir4,285.397,227,5.306552,5.306552,5.306552,60.0,60.0,60.0
1950,Be26Sb2,788.645,226,7.26851,7.26851,7.26851,60.0,60.0,60.0
1951,Ge2S4,242.805,122,6.09858,6.09858,6.09858,123.6745,123.6745,83.74528
1952,Fe2Te4,318.6,58,3.9719189999999998,5.324631,6.399544,90.0,90.0,90.0
1953,Ba3Cl6,193.088,189,8.187748,8.187613,4.712818,90.0,90.0,120.0005
1954,B6K1,997.505,221,4.224767,4.224767,4.224767,90.0,90.0,90.0
1955,Al4Ca2,495.311,227,5.666963,5.666963,5.666963,60.0,60.0,60.0
1956,Be8W4,593.059,194,4.47341,4.47341,7.356621,90.0,90.0,119.9988
1957,In3Y1,212.668,221,4.635883,4.635883,4.635883,90.0,90.0,90.0
1958,O2Pd2,304.785,131,3.099574,3.099574,5.423299,90.0,90.0,90.0
1959,C4N8,1755.32,122,4.8928519999999995,4.8928519999999995,4.8928519999999995,97.08131,97.08131,138.8896
1960,Au36In16,155.224,215,9.988275999999999,9.988275999999999,9.988275999999999,90.0,90.0,90.0
1961,Pt3V1,299.151,139,4.796383,4.796383,4.796383,132.318,132.318,69.7273
1962,O4Os2,438.768,136,4.522451,4.522451,3.217436,90.0,90.0,90.0
1963,Al3Yb1,381.837,221,4.26963,4.26963,4.26963,90.0,90.0,90.0
1964,K8Si46,559.892,223,10.34444,10.34444,10.34444,90.0,90.0,90.0
1965,Ba1O2,330.279,139,4.431079,4.431079,4.431079,128.2767,128.2767,76.17728
1966,Al1Cr2,568.067,139,4.833069,4.833069,4.833069,143.6352,143.6352,52.37308
1967,Pb1Pu3,142.138,221,4.764722,4.764722,4.764722,90.0,90.0,90.0
1968,Al2N2,903.762,194,3.309567,3.309567,4.191431,90.0,90.0,119.8132
1969,C1Tl1,220.807,225,3.563124,3.563124,3.563124,60.0,60.0,60.0
1970,I1Rb1,101.505,225,5.278768,5.278768,5.278768,60.0,60.0,60.0
1971,Cl2Sr1,225.183,225,4.984137,4.984137,4.984137,60.0,60.0,60.0
1972,Cl4Mg2,272.492,40,4.358851,4.358851,9.592322,90.0,90.0,60.93131
1973,Au4S2,87.1266,224,5.356923,5.356923,5.356923,90.0,90.0,90.0
1974,B4Ta3,578.901,71,7.4293759999999995,7.4293759999999995,7.4293759999999995,155.4441,154.0771,36.00757
1975,Bi8O12,226.868,14,8.327115,5.935916,7.557071,67.41434,90.0,90.0
1976,Mg1Se1,239.933,216,4.242215,4.242215,4.242215,60.0,60.0,60.0
1977,Al1P1,531.429,216,3.892793,3.892793,3.892793,60.0,60.0,60.0
1978,Sb8Th6,220.977,220,8.297585,8.297585,8.297585,109.4712,109.4712,109.4712
1979,Ga3U1,288.936,221,4.238885,4.238885,4.238885,90.0,90.0,90.0
1980,Er1Sn3,118.439,221,4.758436,4.758436,4.758436,90.0,90.0,90.0
1981,Bi1O2,295.422,225,3.904407,3.904407,3.904407,60.0,60.0,60.0
1982,B2Ca1,870.73,191,3.219907,3.219967,4.073305,90.0,90.0,119.9994
1983,As4Rh8,287.687,62,3.938294,5.928206,7.430188,90.0,90.0,90.0
1984,O2Sn1,389.19,225,3.68832,3.68832,3.68832,60.0,60.0,60.0
1985,Ir3Sc1,353.749,221,3.940588,3.940588,3.940588,90.0,90.0,90.0
1986,Tl3Y1,113.909,221,4.767044,4.767044,4.767044,90.0,90.0,90.0
1987,Ba1F2,269.753,225,4.439152,4.439152,4.439152,60.0,60.0,60.0
1988,Mg24N16,757.002,206,8.681031,8.681031,8.681031,109.4712,109.4712,109.4712
1989,Au6Ca10,169.755,140,9.203327,9.203327,9.203327,129.157,129.157,74.75807
1990,Br2Tl2,92.9927,63,6.693267,6.693267,5.049177,90.0,90.0,141.077
1991,Al8Hf4,430.691,194,5.25429,5.25429,8.700559,90.0,90.0,120.0001
1992,Co2Ta4,295.854,140,5.000112,5.000112,5.000112,104.7028,104.7028,119.4978
1993,H1K1,296.918,225,3.995534,3.995534,3.995534,60.0,60.0,60.0
1994,Au12Zn4,167.272,64,8.901052,8.901052,5.650176,90.0,90.0,142.8941
1995,Mn3Sb1,270.251,221,4.302542,4.302542,4.302542,90.0,90.0,90.0
1996,Ge6La8,229.588,220,8.172077,8.172077,8.172077,109.4712,109.4712,109.4712
1997,Pt4Ta2,257.499,63,4.86492,4.86492,4.808651,90.0,90.0,120.6345
1998,Ge6N8,613.869,220,5.957326,5.957326,5.957326,109.4712,109.4712,109.4712