,full_formula,band_gap,spacegroup.number,structure.lattice.a,structure.lattice.b,structure.lattice.c,structure.lattice.alpha,structure.lattice.beta,structure.lattice.gamma
7214,Al4S8Zn2,2.4694000000000003,227,7.102964,7.102964,7.102964,60.0,60.0,60.0
7215,La8O24Te4,2.9344,19,5.604431,9.604219,10.53019,90.0,90.0,90.0
7216,Cl18K6Ni6,2.7337,185,11.97316,11.97316,6.021765,90.0,90.0,120.0059
7217,Ag4O8S2,2.2139,70,8.288909,7.10732,5.983245,78.05207,57.02138,44.92655
7218,Be4H12Li4,2.3866,62,4.390773,4.508656,6.274169,90.0,90.0,90.0
7219,K3S4Sb1,2.1222,217,6.81033,6.81033,6.81033,109.4712,109.4712,109.4712
7220,Ba4Pt8S12,1.2835,92,6.871042,6.871042,12.43021,90.0,90.0,90.0
7221,Ag4S8Sb4,1.4003,9,6.97331,6.973373,13.38496,81.57212,81.57252,37.74556
7222,Mg2O6Ti2,3.8226,148,5.552735,5.552735,5.552735,55.1554,55.1554,55.1554
7223,Ag36Ga4Se24,0.0794,198,11.41691,11.41691,11.41691,90.0,90.0,90.0
7224,Ag4Te4Tl4,0.46330000000000005,139,4.605147,4.605215,18.45791,90.0,90.0,90.0
7225,Ag2Ga2S4,1.5005000000000002,122,6.669587,6.669587,6.669587,127.9689,127.9689,76.67546
7226,Mn8O32Pb16,0.7519,114,13.10408,13.10408,5.24329,90.0,90.0,90.0
7227,Co1Sn1Ta1,0.9368000000000001,216,4.228837,4.228837,4.228837,60.0,60.0,60.0
7228,Bi4Mn4O12,0.23900000000000002,15,5.63223,5.63223,10.01603,72.22133,72.22133,60.85908
7229,Nb2O10P2,3.3913,129,6.50292,6.50292,4.128734,90.0,90.0,90.0
7230,F16Fe4Rb4,2.5399000000000003,18,6.36667,7.82032,7.828869,90.0,90.0,90.0
7231,Ba2Be4N4,1.1727,140,5.849851,5.849851,5.849851,121.9736,121.9736,86.61433
7232,Li1S2Ti1,1.4112,164,3.618353,3.618381,6.162904,90.00207,90.0,119.9998
7233,Cl12Cu4Rb4,1.0576,5,7.075712,7.075712,12.59311,88.46522,88.46522,59.45351
7234,Ge1Hg2Se4,0.399,82,7.117134,7.117134,7.117134,131.7192,131.7192,70.67283
7235,Cl16Hg12O4,1.4772,198,9.555281,9.555281,9.555281,90.0,90.0,90.0
7236,K4Na4Se4,2.0463,62,4.844759,8.114214,8.742952,90.0,90.0,90.0
7237,B16O28Rb8,4.5809999999999995,2,10.04538,10.7933,6.738595,103.4793,101.4711,89.3516
7238,Cd2Cu2F8,2.6212,140,6.463329,6.463329,6.463329,130.5542,130.5542,72.52232
7239,As4S16Tl12,1.639,62,8.739047,12.22399,10.16062,90.0,90.0,90.0
7240,Be4F16Tl8,4.4237,62,5.959279,7.793643,10.58025,90.0,90.0,90.0
7241,Au2O4Sc2,2.2382,194,3.314902,3.314902,12.31763,90.0,90.0,120.0012
7242,Ge1Ru1Sc2,0.14930000000000002,216,4.5603110000000004,4.5603110000000004,4.5603110000000004,60.0,60.0,60.0
7243,Cr4Mg2O8,2.7643,227,6.001242,6.001242,6.001242,60.0,60.0,60.0
7244,Cd2P2Sr1,0.8129000000000001,164,4.378108,4.378107,7.291876,89.99858,90.00144,119.9975
7245,Ag1In5Te8,0.34190000000000004,111,6.309357,6.309357,12.83567,90.0,90.0,90.0
7246,F3N1Y1,3.3389,221,4.420367,4.420367,4.420367,90.0,90.0,90.0
7247,Bi24O64Re8,2.8263,198,11.80757,11.80757,11.80757,89.99197,89.99197,90.00803
7248,Ga1Sc1W2,0.1154,216,4.552881,4.552881,4.552881,60.0,60.0,60.0
7249,Mg2P4Si2,1.3502,122,6.529142,6.529142,6.529142,127.6767,127.6767,77.14942
7250,Hf5Se20Tl20,1.2595,2,9.517757,9.518414,16.351,104.213,104.5706,90.05629
7251,Cd1Ga2S4,2.2063,82,6.5174769999999995,6.5174769999999995,6.5174769999999995,128.8314,128.8314,75.28201
7252,Cs16O16Sn4,2.2168,14,7.506534,11.940620000000001,11.97221,69.07137,90.0,90.0
7253,Fe1P4Si4,1.1659,1,6.259418,5.588195,4.90383,70.41027,64.98793,79.43287
7254,F3Na1V1,0.42510000000000003,221,4.159738,4.159738,4.159738,90.0,90.0,90.0
7255,As4S16Tl12,1.6753,62,8.818068,12.14425,10.14893,90.0,90.0,90.0
7256,As8Ge38I8,1.0124,218,10.81816,10.81816,10.81816,90.0,90.0,90.0
7257,Pt1Sb1Tb1,0.2756,216,4.671458,4.671458,4.671458,60.0,60.0,60.0
7258,Cl24Re4Se16,0.5832,56,10.94696,10.79389,11.14209,90.0,90.0,90.0
7259,Er8O24W4,3.4865,19,5.225997,9.078978,9.91892,90.0,90.0,90.0
7260,O14Os3Sn15,1.3434,8,7.355925,7.355925,13.28935,74.04166,74.04166,59.51072
7261,K3O8Ta1,2.9854000000000003,121,6.341514,6.341514,6.341514,113.8645,113.8645,101.0023
7262,As4Ge2Zn2,0.13820000000000002,122,6.970627,6.970627,6.970627,131.3443,131.3443,71.26661
7263,Al8O20Si4,5.4373000000000005,2,7.204811,7.934193,5.636196,89.90137,101.1334,106.0078
7264,Al4O8Zn2,4.4915,227,5.731164,5.731164,5.731164,60.0,60.0,60.0
7265,S6Sn4Tl4,0.8417,15,8.337145,8.337145,7.2473279999999995,76.16519,76.16519,60.05325
7266,Ag8Nb8O24,1.9236,57,5.622907,5.624206,15.97679,90.0,90.0,90.0
7267,Cl4H12O20,5.2712,62,6.159727,7.778012,8.343407,90.0,90.0,90.0
7268,Ga8Li40O32,3.8359,61,9.17757,9.247008,9.278703,90.0,90.0,90.0
7269,As4Cl8F12,2.8391,85,8.960869,8.960869,6.4543859999999995,90.0,90.0,90.0
7270,B24Ca2H24,4.9465,15,7.147409,7.147409,11.07861,89.72938,89.72938,121.4149
7271,Co1In1Sc2,0.4781,216,4.663458,4.663458,4.663458,60.0,60.0,60.0
7272,Ge4I12Rb4,2.2065,19,4.594665,10.4141,17.17043,90.0,90.0,90.0
7273,As4Mn4O16,0.4173,14,12.64241,4.673811,7.215069,89.69316,90.0,90.0
7274,Nb4O12Sn2,2.1407,15,9.073124,9.073124,5.664996,88.10741,88.10741,31.55543
7275,Cu3Ta1Te4,1.2695,215,6.0292,6.0292,6.0292,90.0,90.0,90.0
7276,Co1Sb1Ti1,0.8166,216,4.161501,4.161501,4.161501,60.0,60.0,60.0
7277,Cr4O14Rb4,2.6862,2,7.608721,7.78313,8.058177,109.236,90.63177,109.7251
7278,As2K2Li4,0.6951,59,4.47996,6.380365,6.694347,90.0,90.0,90.0
7279,Fe4O16Sb8,1.1685,135,8.676273,8.676273,6.14148,90.0,90.0,90.0
7280,Nb1S4Tl3,2.4822,217,6.7759,6.7759,6.7759,109.4712,109.4712,109.4712
7281,Ag40Br12Te16,0.993,63,11.13445,11.13445,14.08092,90.0,90.0,91.27643
7282,I4S4Sb4,1.3131,59,6.386522,5.810856,16.41328,90.0,90.0,90.0
7283,Bi12O20Si1,2.4185,197,8.885398,8.885398,8.885398,109.4712,109.4712,109.4712
7284,B12Cs4O20,5.2676,19,6.234623,8.624146,9.716342,90.0,90.0,90.0
7285,Lu4O26Te10,3.0369,2,6.881731,8.739068,10.66972,88.40195,86.83627,74.46868
7286,Nb2Nd6O14,3.0575,63,6.698398,6.698398,7.754064,90.0,90.0,110.9878
7287,B2O6Tl6,1.3733,176,9.456464,9.456392,3.888098,90.0,90.0,119.998
7288,N4O2Si4,4.9083,36,5.273255,5.273255,4.895014,90.0,90.0,116.4688
7289,K12Mn2Se8,1.6476000000000002,186,10.38994,10.38994,8.03523,90.0,90.0,119.9995
7290,Mo2O8Tl4,3.3709,5,6.343552,6.343552,8.242929,88.8837,88.8837,62.73271
7291,Li4Ni2O6,1.3056,12,4.8963529999999995,4.8963529999999995,5.011258,80.51051,80.51051,119.9375
7292,C4N8Zn4,3.8548,122,6.759796,6.759796,6.759796,99.13302,99.13302,133.0429
7293,H2Mg1O2,4.3808,164,3.187398,3.187398,4.604048,90.00157,89.99843,120.002
7294,Br16K4Tl4,1.7796,52,8.140118,10.72945,10.7967,90.0,90.0,90.0
7295,B16Li8O28,5.6202000000000005,110,8.691324,8.691396,8.691275,113.1289,113.1263,102.3829
7296,Nb10O60P14,2.8184,15,15.83261,15.83261,8.916299,88.42449,88.42449,32.44733
7297,F28Sn4Y4,4.3482,14,6.463415,10.3425,9.891319,67.7873,90.0,90.0
7298,K1N1O3,2.9665,160,4.434617,4.434509,4.434518,77.56019,77.56223,77.56201
7299,F36Mn8O8,0.597,15,9.886255,9.886255,9.34761,80.30212,80.30212,52.10271
7300,Li56N32V8,2.9875,218,9.646175,9.646175,9.646175,90.0,90.0,90.0
7301,Cd8Ge2S12,1.411,9,7.259826,7.259826,12.66991,72.622,72.622,59.90828
7302,B1La2Rh1,0.29410000000000003,216,4.797195,4.797195,4.797195,60.0,60.0,60.0
7303,O3Si1Sn1,1.1559,221,4.098106,4.098106,4.098106,90.0,90.0,90.0
7304,O16Sr4U4,3.0965,57,5.542966,8.124583,8.275726,90.0,90.0,90.0
7305,As8O36S8,4.039,14,6.737162,6.8793109999999995,17.7159,83.32397,90.0,90.0
7306,Ba1Co1F3,0.3106,221,5.066304,5.066304,5.066304,90.0,90.0,90.0
7307,Li16N4Se2,1.7787000000000002,109,7.077185,7.077325,7.077325,119.9069,119.9063,90.16236
7308,I2N2Zr2,0.7353000000000001,166,11.19997,11.19997,11.19997,19.30704,19.30704,19.30704
7309,Se2Tb1Tl1,1.251,166,8.148902,8.148902,8.148902,29.8535,29.8535,29.8535
7310,F36Ga6Li18,6.3765,15,8.487477,8.487477,10.14954,85.79929,85.79929,61.59705
7311,Al1La1O3,3.1267,221,3.83189,3.83189,3.83189,90.0,90.0,90.0
7312,Al2Cu2S4,2.1043,122,6.472889,6.472889,6.472889,131.1654,131.1654,71.55035
7313,B12H12O24,5.4166,14,8.351776,9.106685,7.021709,103.5332,90.0,90.0
7314,Br1F3Zr1,0.1046,221,4.262436,4.262436,4.262436,90.0,90.0,90.0
7315,Ga4O8Zn2,2.855,227,5.909949,5.909949,5.909949,60.0,60.0,60.0
7316,Cs1F3Pb1,2.9248000000000003,221,4.902895,4.902895,4.902895,90.0,90.0,90.0
7317,F6Na2Th1,6.4793,150,6.136133,6.136133,3.9840489999999997,90.0,90.0,120.0
7318,Al1La1O3,3.1269,221,3.831747,3.831747,3.831747,90.03809,90.03809,90.03809
7319,Ga1Mo4S8,0.5291,160,6.935041,6.935041,6.935041,60.77494,60.77494,60.77494
7320,Mn2O8S2,3.6310000000000002,63,4.875317,4.875317,6.963264,90.0,90.0,113.9039
7321,Au4O14Se4,1.2094,32,4.246359,7.206081,11.59195,90.0,90.0,90.0
7322,O8P2Tl6,2.6262,173,8.792857,8.793043,5.223215,90.0,90.0,120.0006
7323,Na1O2V1,1.2576,12,3.052812,3.052812,5.710897,74.42584,74.42584,60.3595
7324,Cr3K1O8,1.7708,12,5.272375,5.272375,7.9071359999999995,87.28291,87.28291,63.03581
7325,La8O20Ru4,0.8305,14,5.98154,8.035776,9.384271,79.5874,90.0,90.0
7326,Ag12Au4Te8,0.5663,214,9.138244,9.138244,9.138244,109.4712,109.4712,109.4712
7327,Al16Ba8O32,4.0907,173,10.57845,10.57845,8.881780000000001,90.0,90.0,120.0005
7328,Al1La1O3,3.1268,221,3.831804,3.831804,3.831804,90.0,90.0,90.0
7329,Ca4Mn4O12,0.38570000000000004,62,5.410957,5.330325,7.569674,90.0,90.0,90.0
7330,Ba1Cu2S2,0.6982,139,6.925364,6.925364,6.925364,147.0272,147.0272,47.32356
7331,P8Pd8Se8,1.0547,60,5.881881,5.924303,14.26388,90.0,90.0,90.0
7332,Ba2Hf2N4,1.2474,129,4.151224,4.151224,8.477718,90.0,90.0,90.0
7333,As2Li2S4,1.0546,9,6.611385,6.611614,5.381161,68.96386,68.96239,48.41232
7334,B1Rh1Y2,0.5538000000000001,216,4.615683,4.615683,4.615683,60.0,60.0,60.0
7335,Na1S2Tb1,2.2657,166,7.067107,7.067107,7.067107,32.8719,32.8719,32.8719
7336,Al2La2O6,3.7009,167,5.418891,5.418891,5.418891,60.19038,60.19038,60.19038
7337,As20Ba8In20,0.1168,62,4.357255,17.8127,18.20605,90.0,90.0,90.0
7338,F6Mn1Rb2,3.2491,225,6.169694,6.169694,6.169694,60.0,60.0,60.0
7339,Cu2O12Ta4,0.668,136,4.758506,4.758506,9.387582,90.0,90.0,90.0
7340,K2O8Re2,4.0594,88,7.604837,7.604837,7.604837,134.6843,134.6843,66.02114
7341,Co1H2O2,2.7757,12,3.218644,3.218644,4.691779,90.68423,89.31577,120.286
7342,Ga4La4O12,3.3422,62,5.567699,5.587573,7.8771,90.0,90.0,90.0
7343,C2Cu1Rb1,2.2178,123,4.486562,4.486562,4.967598,90.0,90.0,90.0
7344,Li4O16Ru8,0.2346,62,3.043868,9.068853,10.95843,90.0,90.0,90.0
7345,H1Ni1O2,0.2389,8,4.561271,3.0235630000000002,2.842732,61.95944,90.0,76.58715
7346,Br4In4Te4,1.8109000000000002,14,7.69275,7.843402,8.52881,62.50499,90.0,90.0
7347,I10K2Sn4,1.5021,140,10.2869,10.2869,10.2869,127.8754,127.8754,76.82699
7348,Eu6F20Rb2,1.0589,225,8.492728,8.492728,8.492728,60.0,60.0,60.0
7349,K2O8Tc2,3.258,88,7.725557,7.725557,7.725557,136.0993,136.0993,63.82689
7350,Cd2P2S6,1.7927,12,6.279525,6.279525,7.270643,81.77842,81.77842,119.9967
7351,F3K1Mn1,2.6986,221,4.267394,4.267394,4.267394,90.0,90.0,90.0
7352,Hf1Ir1Sb1,1.06,216,4.455594,4.455594,4.455594,60.0,60.0,60.0
7353,F10K4Sb2,4.6642,63,7.673558,7.673558,6.645179,90.0,90.0,130.7621
7354,B2Cu2S4,1.9361000000000002,122,5.74763,5.74763,5.74763,127.7391,127.7391,77.04806
7355,Cs4I12Sn4,2.3117,11,4.822254,10.17379,30.01072,89.97424,90.0,90.0
7356,Ce2I8O24,2.0016,86,10.31915,10.31915,5.396859,90.0,90.0,90.0
7357,Mg8O16Si4,4.4939,74,7.692768,7.692768,7.692768,136.0114,114.1993,82.56567
7358,K6S8Sb2,2.161,36,7.912324,7.912324,7.830823,90.0,90.0,92.9878
7359,K4Mn2S4,2.0566,72,7.909777,7.909777,7.909777,132.4427,127.509,73.51651
7360,Bi1I1Te1,1.2154,156,4.418093,4.417485,7.137821,89.98892,90.0,120.0046
7361,F6N6S6,4.0695,148,6.980021,6.979867,6.9799430000000005,99.26635,99.26435,99.26509
7362,Ni2O8S2,2.8471,63,4.737137,4.737137,6.434176,90.0,90.0,113.3597
7363,Ag8O8Si2,0.7241000000000001,86,7.4920539999999995,7.4920539999999995,5.155092,90.0,90.0,90.0
7364,O22Sr2Ta8,3.7627,182,6.335266,6.335266,12.5032,90.0,90.0,119.9998
7365,Ag3Bi3Se6,0.44370000000000004,164,4.184892,4.184858,20.1051,90.00032,90.0,120.0003
7366,Bi8O20Sr8,2.2711,62,6.240981,7.749249,14.66128,90.0,90.0,90.0
7367,Ga4H4O8,2.9643,62,3.029815,3.851165,13.54907,90.0,90.0,90.0
7368,K2O8Re2,4.0672,88,7.676164,7.676164,7.676164,135.5447,135.5447,64.6851
7369,K8O16Ru4,1.2658,62,6.316064,7.915561,10.792860000000001,90.0,90.0,90.0
7370,F14Sr4Zn3,5.8498,157,6.858306,6.859087,7.129286,90.00561,89.9972,120.0038
7371,Pd2Rb4Se32,0.9071,117,12.93824,12.93824,7.075996,90.0,90.0,90.0
7372,F3Li1Mn1,2.6929,221,3.68806,3.68806,3.68806,90.0,90.0,90.0
7373,O12Sr6U2,3.2096999999999998,4,6.297386,6.066391,8.747385,89.68608,89.99988,89.99999
7374,Hg6Se8Tl4,1.0614,15,7.149032,7.149032,13.816510000000001,67.63322,67.63322,58.83829
7375,Co4Cs8I16,2.354,62,8.460235,11.10601,14.7958,90.0,90.0,90.0
7376,Al2Nd2O6,3.6955,167,5.354453,5.354453,5.354453,60.40279,60.40279,60.40279
7377,Fe1Te1Ti1,1.3712,216,4.181386,4.181386,4.181386,60.0,60.0,60.0
7378,Gd2O8V2,2.9412000000000003,141,6.077379,6.077379,6.077379,106.1231,106.1231,116.3976
7379,Ba2F8Fe2,3.0653,36,7.926753,7.926753,5.877183,90.0,90.0,148.4158
7380,I8O24Zn4,3.2698,4,10.88834,5.327422,10.78507,90.0,119.0939,90.0
7381,Ba4Se16Yb8,0.53,62,4.602129,11.68566,15.82274,90.0,90.0,90.0
7382,Cr2Ge2Te6,0.19870000000000002,148,8.282151,8.282151,8.282151,49.79339,49.79339,49.79339
7383,Ca4O28V12,2.1204,62,5.369378,10.47552,10.72532,90.0,90.0,90.0
7384,Cu1O6V2,1.6311,2,7.228627,5.471699,4.059247,93.27068,91.58262,90.30812
7385,Bi2Fe2O6,1.6669,161,5.738107,5.738107,5.738107,58.92615,58.92615,58.92615
7386,In1Pd1V1,0.1221,216,4.332658,4.332658,4.332658,60.0,60.0,60.0
7387,Cl2N2Zr2,1.7509000000000001,166,9.91882,9.91882,9.91882,21.19356,21.19356,21.19356
7388,Co1Sb1Ti1,0.8157000000000001,216,4.162713,4.162713,4.162713,60.0,60.0,60.0
7389,Hf1O3Ti1,1.3406,221,4.085951,4.085951,4.085951,90.0,90.0,90.0
7390,Fe2O6Ti2,1.9798,148,5.580457,5.580457,5.580457,55.65192,55.65192,55.65192
7391,Cu2In2S4,0.3976,122,6.875954,6.875954,6.875954,132.1736,132.1736,69.95491
7392,Be6F24Li12,7.5786999999999995,148,8.373586,8.373586,8.373586,107.8033,107.8033,107.8033
7393,Nb1Sb1Ti2,0.0522,216,4.661749,4.661749,4.661749,60.0,60.0,60.0
7394,Al4Cl16Na4,5.1672,19,6.27931,10.03885,10.61586,90.0,90.0,90.0
7395,C2Mg2O6,4.9581,167,5.74021,5.74021,5.74021,48.22786,48.22786,48.22786
7396,Cd2P2S6,1.7878,12,6.283925,6.283925,7.283775,81.85823,81.85823,119.9696
7397,As2Ge4Te7,0.2852,166,23.86312,23.86312,23.86312,10.06158,10.06158,10.06158
7398,Cs1Lu1S2,2.0697,166,8.250563,8.250563,8.250563,27.78429,27.78429,27.78429
7399,C10Fe2O10,3.6301,15,7.017444,7.017444,9.726853,74.86234,74.86234,60.30085
7400,Br8K4Zn2,3.8906,11,7.594317,7.333243,9.28779,71.19215,90.0,90.0
7401,Ge4Na12Se14,1.5811000000000002,15,7.292678,7.292678,15.97967,80.74475,80.74475,98.47576
7402,Co1La2P1,0.0448,225,5.047349,5.047349,5.047349,60.0,60.0,60.0
7403,Br6Rb2Te1,2.0903,87,7.87549,7.87549,7.87549,120.5108,120.5108,89.11751
7404,Cr1Na1S2,1.293,166,6.8308219999999995,6.8308219999999995,6.8308219999999995,30.83023,30.83023,30.83023
7405,O3Rb1U1,2.9093,221,4.403755,4.403755,4.403755,90.0,90.0,90.0
7406,Er6Nd2S12,0.968,11,3.972111,11.29778,11.03667,71.28148,90.0,90.0
7407,Al2O6Pr2,3.8595,167,5.36922,5.36922,5.36922,60.11977,60.11977,60.11977
7408,B8Mn2O14,5.0966,63,6.434154,6.434154,5.246573,90.0,90.0,117.0787
7409,O20V4Yb8,0.053700000000000005,15,8.261494,8.261494,10.61105,60.99133,60.99133,49.9845
7410,Cs6I8Li2,3.7995,11,9.344315,5.200768,17.55451,81.50718,89.99989,89.99997
7411,Al6Ca4O13,3.6418,217,7.461333,7.461333,7.461333,109.4712,109.4712,109.4712
7412,H4I4O12,3.2292,19,5.79527,5.872349,8.196664,90.0,90.0,90.0
7413,Pt2V1Y1,0.0473,216,4.611666,4.611666,4.611666,60.0,60.0,60.0
7414,Ga4Pb2Se8,1.7662,66,6.314874,6.314874,11.03302,90.0,90.0,119.8908
7415,Al4F16Rb4,6.9501,59,6.395237,7.377546,7.35722,90.0,90.0,90.0
7416,Cu2Ga2S4,1.1326,122,6.511628,6.511628,6.511628,131.1851,131.1851,71.5191
7417,F3Ge1K1,1.9442,221,4.436579,4.436579,4.436579,90.0,90.0,90.0
7418,Li8Mn4O12,1.7967,12,5.002589,5.002667,9.732493999999999,85.22457,85.23354,119.907
7419,Cl18Cs6V4,1.3527,194,7.469248,7.469248,18.55284,90.0,90.0,120.0023
7420,I12Rb4Yb4,3.1184,62,4.727921,10.6355,17.59772,90.0,90.0,90.0
7421,Mo2Na4O8,4.2823,227,6.525602,6.525602,6.525602,60.0,60.0,60.0
7422,I4K8O18,1.9186,194,6.307897,6.307897,15.64283,90.0,90.0,120.0006
7423,Fe2O6Ti2,1.8779,161,5.523023,5.523023,5.523023,56.54524,56.54524,56.54524
7424,F18Ni6Rb6,4.0579,194,5.936876,5.936712,14.51661,90.0,90.0,120.0009
7425,Ir6O18Sr6,0.0688,15,5.608481,5.608481,14.44934,88.47118,88.47118,119.6583
7426,Ba8S12Zn4,2.079,62,4.24481,12.15925,12.6991,90.0,90.0,90.0
7427,Cl18K6Ni6,2.7343,185,11.99364,11.99364,6.031016,90.0,90.0,120.0062
7428,Ba2Ce2O6,2.8613,74,6.309957,6.309957,6.309957,119.5299,120.01,90.39941
7429,Cl4F4Sn4,3.4572,62,4.409806,6.404636,10.56293,90.0,90.0,90.0
7430,Ge1Pt1Ti1,0.928,216,4.25165,4.25165,4.25165,60.0,60.0,60.0
7431,F3In1Os1,0.2627,221,4.316963,4.316963,4.316963,90.0,90.0,90.0
7432,H12O16P4,5.9138,14,4.820648,5.911307,12.02094,83.9749,90.0,90.0
7433,Al2K6O6,2.8977,12,6.612186,6.612186,6.566929,83.33484,83.33484,115.786
7434,In2O7Si2,2.8222,12,5.4972069999999995,5.4972069999999995,4.755548,82.18789,82.18789,105.0205
7435,N2Te1U2,0.8553000000000001,139,7.075754,7.075754,7.075754,147.1627,147.1627,47.12296
7436,C2Mn2O6,3.4585,167,5.985015,5.985015,5.985015,47.73777,47.73777,47.73777
7437,Al1Sc1W2,0.0603,216,4.564996,4.564996,4.564996,60.0,60.0,60.0
7438,Bi1O3Sc1,0.6569,221,4.112833,4.112833,4.112833,90.0,90.0,90.0
7439,Hf8O24Pb8,2.7659000000000002,55,5.907875,8.246988,11.78692,90.0,90.0,90.0
7440,As4K4Se8,1.5693000000000001,9,6.835999,6.836147,12.95967,79.50264,79.50249,108.8496
7441,Cl4K2Pd1,2.1873,123,7.167564,7.167564,4.181478,90.0,90.0,90.0
7442,Mn2Na4O8,0.2657,36,5.857517,5.857517,6.70052,90.0,90.0,119.5892
7443,Al2La2O6,3.5167,167,5.413794,5.413794,5.413794,60.10411,60.10411,60.10411
7444,Ag4O22Te8,1.4284,2,7.522459,9.87705,7.392711,85.7353,119.3898,99.65875
7445,Co4F12Na4,4.1647,62,5.489411,5.6659749999999995,7.888324,90.0,90.0,90.0
7446,Mg2O6Ti2,3.8244,148,5.55183,5.55183,5.55183,55.17436,55.17436,55.17436
7447,Cu4S12Ta4,0.6256,62,3.542165,9.62658,12.04038,90.0,90.0,90.0
7448,Rb8S16W4,2.0944,62,7.200945,9.923023,12.80322,90.0,90.0,90.0
7449,C2Ca2O6,5.0002,167,6.470608,6.470608,6.470608,45.76427,45.76427,45.76427
7450,Ag8I8O24,2.5073,61,5.920128,6.269789,17.34855,90.0,90.0,90.0
7451,O3Pb1Sn1,0.39890000000000003,221,4.177671,4.177671,4.177671,90.0,90.0,90.0
7452,C8Ca4O16,3.128,10,7.484965,6.226477,9.669871,91.11773,90.0,90.0
7453,Lu2O8P2,6.0049,141,5.662786,5.662786,5.662786,106.1736,106.1736,116.2893
7454,La8S20Zr4,1.0863,62,7.512056,8.216067,11.7781,90.0,90.0,90.0
7455,Al2Hg1Se4,1.4337,82,6.861512,6.861512,6.861512,129.3833,129.3833,74.39463
7456,Cl17P1W6,0.3257,44,10.64245,10.64245,10.64245,142.4687,118.8106,74.04181
7457,O3Pb1Ti1,2.1623,99,3.9989,3.9989,4.055391,90.0,90.0,90.0
7458,Cl20N4Si8,5.0678,14,15.03974,6.771044,11.43985,77.36152,90.0,90.0
7459,Ni6Sb8U6,0.34600000000000003,220,8.220663,8.220663,8.220663,109.4712,109.4712,109.4712
7460,Ge4N4O2,2.5527,36,5.526682,5.526682,5.171583,90.0,90.0,116.8242
7461,O20Te4U4,2.941,29,5.61469,7.9417860000000005,10.46089,90.0,90.0,90.0
7462,Ge2K6S6,2.3761,12,7.637433,7.637433,8.370777,75.06735,75.06735,109.8609
7463,O24Se4U4,3.0297,14,5.7769189999999995,7.028944,13.55433,76.2054,90.0,90.0
7464,K2O4U1,2.8750999999999998,139,7.345928,7.345928,7.345928,144.9736,144.9736,50.37391
7465,Ba1O3Ti1,2.1335,221,4.059691,4.059691,4.059691,90.0,90.0,90.0
7466,Er6Ga2S12,2.1188,36,8.470081,8.470081,6.424662,90.0,90.0,102.4293
7467,Fe6O16P4,3.2004,14,4.856618,6.118813,10.57097,89.4514,90.0,90.0
7468,Cr4O8Zn2,2.6346,227,5.950684,5.950684,5.950684,60.0,60.0,60.0
7469,Ba4N8O16,2.3745,19,6.890747,7.798014,8.489259,90.0,90.0,90.0
7470,I10In2Pb4,1.8492000000000002,140,9.976237,9.976237,9.976237,126.4794,126.4794,79.10166
7471,F3Ga1Zn1,3.6925,221,4.03453,4.03453,4.03453,90.0,90.0,90.0
7472,Bi4Mn4O12,0.2818,15,5.640274,5.640274,10.01242,72.13099,72.13099,60.87149
7473,K1Nb1O3,2.2266,160,4.059012,4.059012,4.059012,89.87648,89.87648,89.87648
7474,B3Bi1O6,3.893,5,4.420337,4.420337,6.671648,78.58426,78.58426,73.28916
7475,K4O14W4,2.3134,14,14.10903,3.913299,6.1260580000000004,89.69243,90.0,90.0
7476,K1O2Tl1,0.8816,166,6.495794,6.495794,6.495794,31.35293,31.35293,31.35293
7477,Br6K2Re1,2.1096,225,7.543386,7.543386,7.543386,60.0,60.0,60.0