,full_formula,DebyeTemp,spacegroup.number,structure.lattice.a,structure.lattice.b,structure.lattice.c,structure.lattice.alpha,structure.lattice.beta,structure.lattice.gamma
5318,La3Pd3Sn3,235.525,189,7.803646,7.8036200000000004,4.232201,90.0,90.0,120.0001
5319,Au2Sn2Y2,234.478,186,4.733744,4.733744,7.460712,90.0,90.0,119.9982
5320,As3Hf3Ru3,335.638,189,6.5885929999999995,6.5885929999999995,3.8987309999999997,90.0,90.0,120.0091
5321,Ca6H4Pb2,285.565,63,7.247181,7.247181,5.306491,90.0,90.0,104.1212
5322,Al8In6Sr22,196.903,225,12.41978,12.41978,12.41978,60.0,60.0,60.0
5323,N4Ru8Zr16,374.553,227,8.779148,8.779148,8.779148,60.0,60.0,60.0
5324,Mg6Mn1O8,797.529,225,5.995177,5.995177,5.995177,60.0,60.0,60.0
5325,Ca2N2Ni2,468.472,131,3.603397,3.603397,6.913005,90.0,90.0,90.0
5326,Al2Pt2Ti2,320.071,194,4.413543,4.413543,5.681509,90.0,90.0,119.9994
5327,Ba1H3Li1,201.07,221,5.021019,5.021019,5.021019,90.0,90.0,90.0
5328,Mn1Ni4Y1,341.293,216,4.920049,4.920049,4.920049,60.0,60.0,60.0
5329,O8P2Tb2,460.577,141,5.804113,5.804113,5.804113,105.9345,105.9345,116.8029
5330,Ca4O12Ti4,735.34,62,5.434255,5.54467,7.745587,90.0,90.0,90.0
5331,Bi1Ni1Zr1,240.455,216,4.428253,4.428253,4.428253,60.0,60.0,60.0
5332,Ca4Mn4O12,536.202,194,5.388459,5.388394,9.207612,90.0,90.0,120.0004
5333,B2C2Li2,1299.19,194,2.749724,2.749672,7.058945,90.0,90.0,120.0006
5334,Br4Na4O12,279.273,198,6.807189,6.807189,6.807189,90.0,90.0,90.0
5335,Mn4O10Sr4,481.765,55,3.861278,5.618779,11.01318,90.0,90.0,90.0
5336,La3Mg3Pd3,212.187,189,7.812987,7.812987,4.158156,90.0,90.0,120.0033
5337,Er4Ge6Os7,304.978,229,7.22531,7.22531,7.22531,109.4712,109.4712,109.4712
5338,Al3Pd3Tb3,207.678,189,7.154493,7.154493,4.069084,90.0,90.0,120.001
5339,Mg4N6P2,780.896,36,5.659973,5.659973,4.756717,90.0,90.0,119.5491
5340,O6Rb4Tb2,182.884,36,6.738907,6.738907,6.386243,90.0,90.0,113.1552
5341,F6V1Zr1,404.789,225,5.861901,5.861901,5.861901,60.0,60.0,60.0
5342,Au7Cd16Na6,149.297,225,9.806000000000001,9.806000000000001,9.806000000000001,60.0,60.0,60.0
5343,Ga1Nb1Ni2,336.053,225,4.213252,4.213252,4.213252,60.0,60.0,60.0
5344,H1Pd3Tl1,262.459,221,4.110706,4.110706,4.110706,90.0,90.0,90.0
5345,Ba2C8O8,334.812,140,7.759216,7.759216,7.759216,130.8363,130.8363,72.07322
5346,Au2In1Zr1,180.306,225,4.800418,4.800418,4.800418,60.0,60.0,60.0
5347,Ba3O1Sn1,219.754,221,5.52855,5.52855,5.52855,90.0,90.0,90.0
5348,In1Li2Pt1,201.351,216,4.4920729999999995,4.4920729999999995,4.4920729999999995,60.0,60.0,60.0
5349,Ga3La3Mg3,292.819,189,7.632511,7.632511,4.625137,90.0,90.0,119.9998
5350,Cr4Cu2Te8,150.157,227,8.047567,8.047567,8.047567,60.0,60.0,60.0
5351,Mo3Ni3P3,459.649,189,5.86104,5.86104,3.72796,90.0,90.0,119.9997
5352,Cd2In4O8,355.117,227,6.568342,6.568342,6.568342,60.0,60.0,60.0
5353,Ba1Cu2Se2,222.71,139,7.234149,7.234149,7.234149,147.2221,147.2221,47.03511
5354,Dy4Ge4In2,228.326,127,7.39404,7.39404,4.194057,90.0,90.0,90.0
5355,Br1H4N1,286.015,215,4.087067,4.087067,4.087067,90.0,90.0,90.0
5356,Cl6Rb2Zr1,134.09,225,7.409416,7.409416,7.409416,60.0,60.0,60.0
5357,P4S12Th2,185.335,84,7.202033,7.202033,10.05072,90.0,90.0,90.0
5358,Ce2Pd2Sb4,240.468,129,4.410235,4.410235,9.81742,90.0,90.0,90.0
5359,Cr2Ho2O8,430.716,141,5.968277,5.968277,5.968277,105.9981,105.9981,116.666
5360,Al10C6N2,888.772,186,3.307681,3.307681,21.83716,90.0,90.0,119.9999
5361,Al2C2Ti4,724.865,194,3.107972,3.107972,13.83754,90.0,90.0,119.9998
5362,B8Rh8Tb2,436.915,137,5.322326,5.322326,7.459741,90.00614,90.00614,89.99942
5363,Cl16Hg12O4,98.3256,198,9.557390999999999,9.557390999999999,9.557390999999999,90.0,90.0,90.0
5364,Ba6Cr2S10,235.784,185,9.272274,9.272047,6.226629,90.0,90.0,120.0008
5365,Ca4I2N2,326.207,194,3.8190600000000003,3.818991,14.65959,90.0,90.0,120.0006
5366,Ga3Ni3Ti3,453.319,189,7.03147,7.03147,2.989919,90.0,90.0,119.9791
5367,Co8Dy6Ge26,361.165,223,8.744326,8.744326,8.744326,90.0,90.0,90.0
5368,K2Nb2S4,411.123,194,3.482246,3.482258,15.62789,90.0,90.0,119.9999
5369,In14K3Mg20,236.299,221,9.814844,9.814844,9.814844,90.0,90.0,90.0
5370,C2Co1Tb1,470.184,38,3.751079,3.751079,3.574124,90.0,90.0,107.0484
5371,Br4Na4O12,291.412,198,6.805919,6.805919,6.805919,90.0,90.0,90.0
5372,La6Pb26Rh8,186.042,223,10.19659,10.19659,10.19659,90.0,90.0,90.0
5373,C1Ru3V1,565.202,221,3.997062,3.997062,3.997062,90.0,90.0,90.0
5374,Co1Si3Th1,381.75,107,5.628522,5.628522,5.628522,136.081,136.081,63.85514
5375,Cl4Cs4O16,152.59,216,8.069219,8.069219,8.069219,90.0,90.0,90.0
5376,Ge2Ru2Th1,341.868,139,5.906122,5.906122,5.906122,137.0504,137.0504,62.36059
5377,H2Hf2Pd1,221.383,139,6.605615,6.605615,6.605615,152.2032,152.2032,39.71661
5378,Ge3Mn3Pd3,271.149,189,6.674485,6.674407,3.8780200000000002,90.0,90.0,120.0004
5379,Co2O8Rh4,437.454,227,6.109036,6.109036,6.109036,60.0,60.0,60.0
5380,O8Sn2Zn4,417.961,227,6.136907,6.136907,6.136907,60.0,60.0,60.0
5381,Mg3Tl3Y3,264.905,189,7.575444,7.575444,4.669052,90.0,90.0,120.0046
5382,Ba2In4Rh2,191.665,63,6.183388,6.183388,8.202828,90.0,90.0,137.8184
5383,Sb2Y2Zr2,268.919,139,8.85956,8.85956,8.85956,152.0312,152.0312,39.96773
5384,Ca2Hg2Sn2,190.076,186,4.913205,4.913047,7.885813,90.0,90.0,120.0011
5385,F3Mn1Rb1,350.337,221,4.312699,4.312699,4.312699,90.0,90.0,90.0
5386,Au2Ca2Sb2,190.034,194,4.70066,4.70066,8.18275,90.0,90.0,119.999
5387,Ca4O12Ru4,539.817,62,5.394922,5.667775,7.730035,90.0,90.0,90.0
5388,P3Ru3Ti3,513.676,189,6.276353,6.276016,3.706828,90.0,90.0,120.0018
5389,Ge2Li4O6,503.084,36,5.59976,5.59976,4.94018,90.0,90.0,120.5937
5390,F6Hf1V1,356.452,225,5.819368,5.819368,5.819368,60.0,60.0,60.0
5391,Li1Pd2Sn1,213.776,225,4.502162,4.502162,4.502162,60.0,60.0,60.0
5392,Er4Pb2Pd4,185.734,127,7.831434,7.831434,3.596164,90.0,90.0,90.0
5393,Mg4Si4Sr4,365.492,62,4.583617,7.815753,8.562255,90.0,90.0,90.0
5394,Pt4Sn4Sr4,192.536,62,4.7849,7.682219,8.16633,90.0,90.0,90.0
5395,Al4Au4Dy2,231.37,129,4.328358,4.328358,10.49375,90.0,90.0,90.0
5396,Dy1Ge2Rh2,324.447,139,5.93765,5.93765,5.93765,139.3362,139.3362,58.8626
5397,Ir8Sn26Sr6,210.772,223,10.00682,10.00682,10.00682,90.0,90.0,90.0
5398,Br6Cs2Pt1,99.0667,225,7.777099,7.777099,7.777099,60.0,60.0,60.0
5399,Gd4O14Zr4,433.638,227,7.460528,7.460528,7.460528,60.0,60.0,60.0
5400,Cd1Li2Sb1,174.152,225,4.80514,4.80514,4.80514,60.0,60.0,60.0
5401,Ho4Rh6Sn10,228.839,36,13.59167,13.59167,7.267273,90.0,90.0,161.1738
5402,Co4O12Se4,428.035,62,5.096956,6.010091,7.702879,90.0,90.0,90.0
5403,C2Ge2Ti4,570.308,194,3.142048,3.142018,13.06547,90.0,90.0,120.0003
5404,Al4I2La4,267.481,194,4.40137,4.401455,17.87835,90.0,90.0,119.9994
5405,Ga3Rh3Zr3,314.089,189,7.187805,7.187805,3.445624,90.0,90.0,120.0008
5406,Co2Er2Ge4,273.874,63,8.388584999999999,8.388584999999999,4.133201,90.0,90.0,151.6654
5407,C1Mg3Zn1,445.096,221,4.407199,4.407199,4.407199,90.0,90.0,90.0
5408,S8Sc4Zn2,385.326,227,7.491144,7.491144,7.491144,60.0,60.0,60.0
5409,O3Sn1Ti1,553.237,221,3.980776,3.980776,3.980776,90.0,90.0,90.0
5410,Al2Te4Zn1,207.755,82,7.360562,7.360562,7.360562,131.2876,131.2876,71.35654
5411,Cd4La16Ru4,176.367,216,10.17881,10.17881,10.17881,60.0,60.0,60.0
5412,As2Be2Na2,402.672,194,3.831208,3.831208,8.964856,90.0,90.0,119.9984
5413,Ca1O3Sn1,531.654,221,4.12402,4.12402,4.12402,90.0,90.0,90.0
5414,Pt4Sn4Tb4,205.091,62,4.597488,7.2527989999999996,8.060298,90.0,90.0,90.0
5415,Cs2F6Si1,150.389,225,6.40626,6.40626,6.40626,60.0,60.0,60.0
5416,Ga9Ru3Tb3,326.785,221,6.424488,6.424488,6.424488,90.0,90.0,90.0
5417,In3La3Rh3,209.646,189,7.697437,7.697437,4.148286,90.0,90.0,120.0018
5418,Au1Ca3N1,290.873,221,4.850769,4.850769,4.850769,90.0,90.0,90.0
5419,Gd4O14Zr4,488.813,227,7.549559,7.549559,7.549559,60.0,60.0,60.0
5420,O1Sn1Sr3,291.838,221,5.184947,5.184947,5.184947,90.0,90.0,90.0
5421,Ga2Gd6O12,376.611,36,7.261729,7.261729,5.518347,89.99895,90.00105,102.8421
5422,Al36Mg6Ta4,460.454,227,10.50871,10.50871,10.50871,60.0,60.0,60.0
5423,Cu2S4Tl2,219.67,122,6.99324,6.99324,6.99324,132.1771,132.1771,69.94941
5424,As2Rb6Se32,98.9107,203,12.09971,12.09971,12.09971,60.0,60.0,60.0
5425,Cl2La10Sn6,229.427,193,9.737932,9.737932,6.998531,90.0,90.0,120.0004
5426,C4Co8Mo16,470.196,227,8.106572,8.106572,8.106572,60.0,60.0,60.0
5427,Rh4Sc4Si4,458.039,62,4.089681,6.569523,7.289378,90.0,90.0,90.0
5428,Ge2Rh2Tb1,328.505,139,5.951613,5.951613,5.951613,139.4025,139.4025,58.76167
5429,Dy3Mg3Pd3,175.921,189,7.477103,7.477103,4.01447,90.0,90.0,120.0018
5430,H6Os1Sr2,344.324,225,5.377815,5.377815,5.377815,60.0,60.0,60.0
5431,La4Pd4Sn4,207.769,62,4.816488,7.743273,8.127656,90.0,90.0,90.0
5432,In4Pt4Sr4,191.077,62,4.536912,7.617337,8.563599,90.0,90.0,90.0
5433,Ag1Na1O1,280.131,216,4.025653,4.025653,4.025653,60.0,60.0,60.0
5434,Al6C6Er2,713.17,194,3.421916,3.421954,17.25583,90.0,90.0,119.9996
5435,Nb4P4Ru4,495.407,62,3.7398100000000003,6.3695640000000004,7.199745,90.0,90.0,90.0
5436,Au1K3O1,188.127,221,5.320645,5.320645,5.320645,90.0,90.0,90.0
5437,Er3Mg3Pd3,178.848,189,7.415948,7.41584,4.013795,90.0,90.0,120.0005
5438,Be4Ca2N4,722.324,140,5.227954,5.227954,5.227954,115.7915,115.7915,97.45824
5439,Ga2In2O6,494.138,194,3.349302,3.349302,12.14826,90.0,90.0,120.0019
5440,As4Ni4U2,280.622,129,4.201762,4.201762,9.222641,90.0,90.0,90.0
5441,Al1Ge1Sr1,325.316,187,4.332693,4.332493,4.755414,90.0,90.0,120.0015
5442,Hf6Ni4Si6,407.181,63,5.267581,5.267581,12.92666,90.0,90.0,137.3578
5443,B2Ge6Nb10,480.426,193,7.793914,7.793914,5.38433,90.0,90.0,119.9997
5444,Ca1Ge2Ru2,326.001,139,5.804481,5.804481,5.804481,136.4276,136.4276,63.31998
5445,Bi4O12Rh4,369.853,62,5.453956,5.904028,7.853321,90.0,90.0,90.0
5446,Ca3N1Tl1,304.202,221,4.95333,4.95333,4.95333,90.0,90.0,90.0
5447,F6Ge1Rb2,160.563,225,6.138264,6.138264,6.138264,60.0,60.0,60.0
5448,Al1Ti1Zr2,315.63,225,4.8785,4.8785,4.8785,60.0,60.0,60.0
5449,Ag4In8Na12,162.983,227,9.789833999999999,9.789833999999999,9.789833999999999,60.0,60.0,60.0
5450,Pt4Si4Y2,276.09,129,4.199493,4.199493,9.772334,90.0,90.0,90.0
5451,C8Pu4W4,413.285,62,3.287653,5.710982,10.99109,90.0,90.0,90.0
5452,Ni2Si2Th1,403.175,139,5.625518,5.625518,5.625518,137.0849,137.0849,62.30741
5453,B8Mo2U2,668.622,65,6.025832,6.025832,3.740031,90.0,90.0,104.0327
5454,Au4O4Rb4,145.048,139,7.755155,7.755155,7.755155,98.37942,98.37942,135.1166
5455,Bi4O14Rh4,397.336,227,7.3462,7.3462,7.3462,60.0,60.0,60.0
5456,Ag1Li2Sb1,231.476,216,4.7238109999999995,4.7238109999999995,4.7238109999999995,60.0,60.0,60.0
5457,Ir4Sn4Sr3,201.66,217,7.090897,7.090897,7.090897,109.4712,109.4712,109.4712
5458,Al1Lu3N1,380.722,221,4.618196,4.618196,4.618196,90.0,90.0,90.0
5459,Bi1Dy1Pd1,206.416,216,4.73959,4.73959,4.73959,60.0,60.0,60.0
5460,Au2Ge2Th1,135.331,139,6.426108,6.426108,6.426108,140.4822,140.4822,57.12191
5461,Mg2Mo2N4,817.82,194,2.941052,2.941052,10.63016,90.0,90.0,120.0008
5462,C4H4N4,1551.08,198,4.030591,4.030591,4.030591,90.0,90.0,90.0
5463,Au18In15Na6,165.256,200,9.461045,9.461045,9.461045,90.0,90.0,90.0
5464,Ca3Ir6P6,289.714,154,6.635295,6.635279,7.058517,90.00094,89.99988,120.0004
5465,Ru2Si2Th1,410.113,139,5.796223,5.796223,5.796223,137.1415,137.1415,62.2204
5466,Ge3Mn3Nb3,457.011,189,6.697425,6.695933,3.408469,90.0,90.0,119.9926
5467,Mn1Pd1Te1,188.98,216,4.514168,4.514168,4.514168,60.0,60.0,60.0
5468,C1Er3Ga1,177.223,221,5.246018,5.246018,5.246018,90.0,90.0,90.0
5469,Ge4Ir4Zr4,351.999,62,4.048979,6.6337,7.560708,90.0,90.0,90.0
5470,Ni8Si4Ta12,262.299,227,7.942286,7.942286,7.942286,60.0,60.0,60.0
5471,As2Ca1Pd2,240.314,139,5.978525,5.978525,5.978525,137.4896,137.4896,61.68565
5472,Se12Sr4Zr4,235.505,62,3.992064,9.058898,14.65284,90.0,90.0,90.0
5473,Dy1P1Pt1,247.869,187,4.122332,4.122145,3.8609679999999997,90.0,90.0,120.0015
5474,Er2Pt4Si4,248.786,129,4.175356,4.175356,9.776153,90.0,90.0,90.0
5475,Dy4Ga12Pd1,321.573,229,7.452892,7.452892,7.452892,109.4712,109.4712,109.4712
5476,As1Cd1Li1,85.0416,216,4.325534,4.325534,4.325534,60.0,60.0,60.0
5477,Al4Gd4O12,577.656,62,5.289376,5.369813,7.517898,90.0,90.0,90.0
5478,Mg12Ni8Ti4,423.613,227,8.233928,8.233928,8.233928,60.0,60.0,60.0
5479,Pb1Pt5Si1,230.497,123,4.002695,4.002695,7.223933,90.0,90.0,90.0
5480,As2Hg1O6,338.919,162,4.956753,4.956752,5.108074,90.00023,90.00029,120.0009
5481,Al5Ba5Sn1,201.95,187,6.127311,6.127273,11.15173,90.0,90.0,120.0002
5482,Ge3Li3Y3,383.722,189,7.076697,7.076604,4.259852,90.0,90.0,120.0004
5483,Ga12Lu4Pd1,316.029,229,7.364599,7.364599,7.364599,109.4712,109.4712,109.4712
5484,Cu4K4S4,155.903,33,5.3510159999999996,6.258521,10.69694,90.0,90.0,90.0
5485,Ni4Sb4Se4,298.767,198,6.108074,6.108074,6.108074,90.0,90.0,90.0
5486,Cl6Cs2Ge1,123.672,225,7.483798,7.483798,7.483798,60.0,60.0,60.0
5487,Ag2Dy2Te4,175.975,113,7.220198,7.220198,4.629427,90.0,90.0,90.0
5488,Ba3Na3P3,262.305,189,7.993237,7.993237,4.690802,90.0,90.0,120.0002
5489,Mn4O12Sr4,511.746,194,5.534979,5.534979,9.280178,90.0,90.0,119.9999
5490,Ba2Hf2N4,295.455,129,4.152149,4.152149,8.476311,90.0,90.0,90.0
5491,Al5Ca5Si5,475.666,187,4.209601,4.210276,21.79362,90.0,90.0,119.9947
5492,Ho2Pd6S8,239.599,223,6.6968630000000005,6.6968630000000005,6.6968630000000005,90.0,90.0,90.0
5493,Er10Ni2Pb6,194.292,193,9.083051,9.083051,6.63906,90.0,90.0,119.999
5494,As4Cd2Sr4,233.586,36,8.815757,8.815757,7.690794,90.0,90.0,150.4649
5495,B4S12Tb4,296.429,33,6.166554,7.224058,8.745732,90.0,90.0,90.0
5496,Ga4Rh4Y4,232.521,62,4.331253,6.804995,7.754035,90.0,90.0,90.0
5497,B2Sn6Zr10,375.396,193,8.618381,8.618395,5.870607,90.0,90.0,119.9999
5498,Bi4O14Ru4,403.645,227,7.424143,7.424143,7.424143,60.0,60.0,60.0
5499,Ag2Co2O4,359.352,194,2.906329,2.906329,12.43841,90.0,90.0,120.0016
5500,B8Ir4V8,594.243,58,3.131573,7.164005,9.24493,90.0,90.0,90.0
5501,Mg1O6Pt3,389.842,65,6.166703,6.166703,3.207218,90.0,90.0,108.7171
5502,Er1Pd2Si2,317.196,139,5.746313,5.746313,5.746313,137.8691,137.8691,61.10358
5503,Al6C6Y2,828.94,194,3.43607,3.43607,17.3439,90.0,90.0,119.9998
5504,Al1F5K2,305.103,123,6.05394,6.05394,3.761378,90.0,90.0,90.0
5505,Al2C6V8,804.895,194,2.942117,2.942117,22.94591,90.0,90.0,119.9999
5506,Cu3Se4Ta1,204.964,215,5.758742,5.758742,5.758742,90.0,90.0,90.0
5507,B6Mg3Ni9,568.462,181,4.847794,4.847794,8.734931,90.0,90.0,120.0
5508,Cs2O4Y2,326.368,194,3.566968,3.5669649999999997,13.7559,90.0,90.0,120.0002
5509,Fe1Ga12Ho4,299.783,229,7.447511,7.447511,7.447511,109.4712,109.4712,109.4712
5510,Dy10Ni2Pb6,193.158,193,9.173523,9.173523,6.718789,90.0,90.0,119.9999
5511,Dy2O8V2,406.784,141,6.00569,6.00569,6.00569,106.2106,106.2106,116.2099
5512,Ge6Rh7Sc4,408.534,229,7.106705,7.106705,7.106705,109.4712,109.4712,109.4712
5513,Pt1Sb1Y1,252.009,216,4.666202,4.666202,4.666202,60.0,60.0,60.0
5514,Pt4Si4Zr4,394.54,62,3.9170629999999997,6.639411,7.598993,90.0,90.0,90.0
5515,Cr4Hg2Se8,221.562,227,7.781693,7.782148,7.781846,60.01081,60.0094,60.00122
5516,Br6Cs2Mg2,126.203,194,7.806698,7.806411,6.61303,90.0,90.0,120.0012
5517,Ge4Nb4Pt4,267.186,62,3.9553000000000003,6.512742,7.573081,90.0,90.0,90.0
5518,Ni1Sb1Yb1,156.316,216,4.533465,4.533465,4.533465,60.0,60.0,60.0
5519,C8Re4Y8,391.527,62,5.129953,6.612191,9.895113,90.0,90.0,90.0
5520,Er1Pd2Sn1,201.554,225,4.783118,4.783118,4.783118,60.0,60.0,60.0
5521,Au4Ga4Sr2,172.36,129,4.540954,4.540954,10.7025,90.0,90.0,90.0
5522,Ag4O12Sb4,432.761,227,7.373694,7.373694,7.373694,60.0,60.0,60.0
5523,Ag3Dy3Ge3,279.056,189,7.200799,7.200459,4.223707,90.0,90.0,120.0016
5524,I6Rb2Sn1,83.0615,225,8.399061,8.399061,8.399061,60.0,60.0,60.0
5525,Cu2F6K2,362.484,140,5.785965,5.785965,5.785965,118.2052,118.2052,93.1378
5526,Ho10Ni4Sb2,166.423,140,8.524447,8.524447,8.524447,127.0009,127.0009,78.24923
5527,Al1Ni2V1,421.284,225,4.088886,4.088886,4.088886,60.0,60.0,60.0
5528,Au2Si2Th1,210.621,139,6.114852,6.114852,6.114852,138.7108,138.7108,59.81617
5529,As4Cd2Si2,281.338,122,6.9678,6.9678,6.9678,129.1168,129.1168,74.82277
5530,Al2K2Te4,173.943,140,7.099624,7.099624,7.099624,104.1062,104.1062,120.8344
5531,Au2In1U1,130.862,225,5.061937,5.061937,5.061937,60.0,60.0,60.0
5532,Ag6O8P2,237.965,218,6.114238,6.114238,6.114238,90.0,90.0,90.0
5533,Au2Ca2P2,260.929,194,4.305732,4.305732,7.909878,90.0,90.0,119.9969
5534,Ni4Sb4Zr4,322.294,62,4.199281,6.768815,7.580188,90.0,90.0,90.0
5535,Ca6Ir8Sn26,195.475,223,9.910642,9.910642,9.910642,90.0,90.0,90.0
5536,Ge26Os8Tb6,310.237,223,9.074463,9.074463,9.074463,90.0,90.0,90.0
5537,Mg4O12Si4,1008.24,62,4.829745,4.983143,6.97745,90.0,90.0,90.0
5538,Mg5Pt10Si16,351.635,216,8.939999,8.939999,8.939999,60.0,60.0,60.0
5539,Hf8Ni8Sn4,304.88,136,7.061022,7.061022,6.771733,90.0,90.0,90.0
5540,Ba2F8Mg2,345.031,36,7.741728,7.741728,5.949985,90.0,90.0,148.8602
5541,Bi1Nd1Pd1,206.283,216,4.847653,4.847653,4.847653,60.0,60.0,60.0
5542,Pd4Sc4Si4,374.871,62,4.114663,6.642931,7.464467,90.0,90.0,90.0
5543,Mg6Ni16Si7,527.613,225,7.93512,7.93512,7.93512,60.0,60.0,60.0
5544,Ge1O8Zr3,441.412,121,6.413087,6.413087,6.413087,133.4093,133.4093,68.01207
5545,C1Tl1Y3,343.642,221,4.932371,4.932371,4.932371,90.0,90.0,90.0
5546,Li2Na1Sb1,326.345,225,4.831225,4.831225,4.831225,60.0,60.0,60.0
5547,Cu2In2O4,333.421,194,3.332189,3.332131,11.66091,90.0,90.0,120.0006
5548,Er6Ga2O12,386.401,36,7.070091,7.070091,5.3908629999999995,90.0,90.0,102.8253
5549,La1P12Ru4,537.554,204,7.027992,7.027992,7.027992,109.4712,109.4712,109.4712
5550,La16Mg4Ru4,183.583,216,10.23024,10.23024,10.23024,60.0,60.0,60.0
5551,Cd2P4Sn2,269.865,122,7.27117,7.27117,7.27117,131.2259,131.2259,71.4544
5552,Er4O14Tc4,501.298,227,7.273806,7.273806,7.273806,60.0,60.0,60.0