,full_formula,band_gap,spacegroup.number,structure.lattice.a,structure.lattice.b,structure.lattice.c,structure.lattice.alpha,structure.lattice.beta,structure.lattice.gamma
10889,Ce8O28Si8,4.5964,14,8.845684,5.500803,13.2313,90.02545,90.0,90.0
10890,Nd4O12Rh4,1.4844,62,5.478258,5.853925,7.891074,90.0,90.0,90.0
10891,Li4Mn4O8,1.2158,141,6.193637,6.193637,6.193637,124.4688,124.4688,82.4198
10892,Al3O12P3,5.6443,154,5.018302,5.018339,11.09833,90.0001,89.99978,120.001
10893,O6Sr2Ti2,2.3866,140,5.600591,5.600596,5.614357,119.9177,119.9177,90.00221
10894,Br16Cd4Cs8,3.4051,62,8.089154,10.4393,14.53731,90.0,90.0,90.0
10895,F2I2Sr2,4.2997,129,4.2646,4.2646,9.574844,90.0,90.0,90.0
10896,K1Nd1S2,2.278,166,7.759758,7.759758,7.759758,31.4849,31.4849,31.4849
10897,Bi2Cl2F16,2.2176,2,5.409025,5.954077,10.75001,90.77896,93.73913,94.36988
10898,Ge2S6Tl4,1.7039,2,8.784057,6.975094,6.87548,66.82226,65.32245,72.79754
10899,Cr3Na1O8,1.7484000000000002,12,5.148045,5.148045,6.967634,89.11404,89.11404,65.47057
10900,B4H12O12,5.9778,2,6.980125,6.97316,7.515602,80.24575,78.42918,59.91563
10901,Cl2Cr2O2,1.7115,59,3.246998,3.942218,8.172962,90.0,90.0,90.0
10902,Cu2S2Yb1,1.1116,164,3.920748,3.920629,6.492427,89.99994,90.0,120.001
10903,Mn6O20Sr8,1.1989,64,6.861363,6.861363,12.90796,90.0,90.0,132.2611
10904,B12Li4O20,6.3696,33,5.227616,7.443597,8.565239,90.0,90.0,90.0
10905,Co2K12Se8,1.7405,186,10.29359,10.29359,7.99253,90.0,90.0,119.9995
10906,Ca8O16Ru4,0.9857,61,5.4868369999999995,5.810127,11.63092,90.0,90.0,90.0
10907,Mn2O6Ti2,2.0844,161,5.550314,5.550314,5.550314,56.92997,56.92997,56.92997
10908,K4O24Te8,1.1339000000000001,12,7.313983,7.313983,12.33843,75.00694,75.00694,60.43478
10909,Al1Mo2Sc1,0.1882,216,4.594466,4.594466,4.594466,60.0,60.0,60.0
10910,Cl6Cs2Cu4,2.3965,63,7.7473019999999995,7.7473019999999995,5.533527,90.0,90.0,103.5892
10911,Cl4O16Rb4,5.4818,62,5.930269,7.6611270000000005,9.471408,90.0,90.0,90.0
10912,Ga4Li4Se8,2.1192,33,6.660677,6.949638,8.317531,90.0,90.0,90.0
10913,In4Sb12Sr10,0.0623,55,4.725009,12.81883,14.93164,90.0,90.0,90.0
10914,B24H24O48,7.0568,218,8.966836,8.966836,8.966836,90.0,90.0,90.0
10915,O36Pr8W8,3.2082,14,10.04939,7.777798,9.414701,72.49482,90.0,90.0
10916,Ca1O3Sn1,0.6925,221,4.123617,4.123617,4.123617,90.0,90.0,90.0
10917,Ni1S17U8,1.0521,12,7.975779,7.975779,10.56429,80.23662,80.23662,64.49787
10918,Al1F3Zn1,0.8688,221,3.911633,3.911633,3.911633,90.0,90.0,90.0
10919,Al2La2O6,3.7079,167,5.418888,5.418888,5.418888,60.19334,60.19334,60.19334
10920,H6La2O6,3.6173,176,6.648074,6.648085,3.895415,90.0,90.0,119.9995
10921,Ba2F8Mg2,6.8101,63,7.64597,7.64597,5.843513,90.0,90.0,147.9434
10922,B4O12Sr6,4.3897,167,6.791832,6.791832,6.791832,84.27713,84.27713,84.27713
10923,Al1Pd1V1,0.2023,216,4.164592,4.164592,4.164592,60.0,60.0,60.0
10924,Ba12O36Te12,3.1694,62,6.233332,12.48842,15.26436,90.0,90.0,90.0
10925,O20Ta4V4,2.2214,62,5.62561,7.065308,12.09567,90.0,90.0,90.0
10926,Ge8La8O28,3.4031000000000002,2,12.98624,7.18302,7.132566,90.89182,90.29266,94.12345
10927,Al8Be4O16,6.1316,62,4.460254,5.525294,9.494323,90.0,90.0,90.0
10928,Cl4Pd2Se12,1.3392,14,8.616475,4.81948,13.12783,80.42873,90.0,90.0
10929,N4O4Ta4,2.4162,12,6.891184,6.891184,6.779311,73.14207,73.14207,33.03969
10930,Cr2P2S8,1.002,12,6.621525,6.621525,6.834062,88.40325,88.40325,68.7716
10931,Al4S8Zn2,2.4677,227,7.104308,7.104308,7.104308,60.0,60.0,60.0
10932,Be4Cs8F16,6.7059999999999995,62,6.238761,8.319214,10.904910000000001,90.0,90.0,90.0
10933,As2Cd1O6,1.9918,162,4.923993,4.923983,4.969259,89.99974,90.00052,120.0001
10934,Bi1Co1O3,0.8281000000000001,221,3.801327,3.801327,3.801327,90.0,90.0,90.0
10935,Fe4O14Rb16,1.532,14,17.74877,7.031411,7.074215,60.96525,90.00013,90.0003
10936,Ag2Nb6O16,2.383,72,7.352867,7.352867,7.352867,122.3545,119.4755,88.44096
10937,Co6O16U4,2.6113,58,5.191644,6.213432,10.43697,90.0,90.0,90.0
10938,Ge4Mn4N8,0.7572,33,5.384588,5.3945229999999995,6.6769359999999995,90.0,90.0,90.0
10939,Nb2O10P2,3.3815,129,6.509197,6.509197,4.125922,90.0,90.0,90.0
10940,Ag8Er8S16,1.4051,4,7.654749,7.654919,12.09943,90.0002,90.00011,90.00023
10941,Ga4O8Zn2,2.854,227,5.9101300000000005,5.9101300000000005,5.9101300000000005,60.0,60.0,60.0
10942,F3W1Zn1,0.7368,221,4.282082,4.282082,4.282082,90.0,90.0,90.0
10943,Fe2O8W2,1.8884,13,5.064452,4.818005,7.512555,50.10915,89.73898,89.59299
10944,Cr6Rb2S10,0.7067,12,10.07334,10.07334,12.41084,57.61449,57.61449,20.52178
10945,Co4K12O14,1.4683000000000002,14,9.20394,6.620703,9.293873,87.59269,90.0,90.0
10946,Ag2O8Re2,3.0906,88,7.160691,7.160691,7.160691,134.8119,134.8119,65.82254
10947,Ag2In2Se4,0.4027,122,7.421172,7.421172,7.421172,130.3519,130.3519,72.84485
10948,B6O18Y6,5.1669,63,6.596978,6.605819,8.903721,90.0,90.0,119.9559
10949,Br18Nb4Rb6,0.5059,194,7.847118,7.847002,18.27255,90.0,90.0,120.0005
10950,F2Gd2S2,1.0836000000000001,129,3.8536,3.8536,6.907898,90.0,90.0,90.0
10951,Al12O48P12,5.3011,14,14.50217,6.198036,8.694453,75.35538,90.0,90.0
10952,Al2La2O6,3.5202999999999998,167,5.415573,5.415573,5.415573,60.10739,60.10739,60.10739
10953,Cl6K2Pd1,1.157,225,7.045713,7.045713,7.045713,60.0,60.0,60.0
10954,Ce1Cl6Cs2,2.2696,164,7.662713,7.662713,6.21606,89.99983,90.00017,120.0008
10955,Bi20N4O40,2.6858,14,23.60439,5.681268,8.865616,70.52447,90.0,90.0
10956,O4Sr1U1,2.5540000000000003,166,6.615223,6.615223,6.615223,35.09384,35.09384,35.09384
10957,B16Ca8H64,5.5958,61,7.3712,8.784967,13.36722,90.0,90.0,90.0
10958,F3Ga1Sn1,0.32630000000000003,221,4.7048749999999995,4.7048749999999995,4.7048749999999995,90.0,90.0,90.0
10959,Cr1Hf2Sn1,0.0572,216,4.7349689999999995,4.7349689999999995,4.7349689999999995,60.0,60.0,60.0
10960,Rh1Sb1Th1,0.77,216,4.807274,4.807274,4.807274,60.0,60.0,60.0
10961,K8O20Zr8,3.8083,52,5.929767,8.893598,10.90488,90.0,90.0,90.0
10962,Na1O3Ta1,2.5037000000000003,221,3.995449,3.995449,3.995449,90.0,90.0,90.0
10963,As2O6Pd1,1.7446000000000002,162,4.9121369999999995,4.9121369999999995,4.787227,90.00039,90.00039,120.0021
10964,Fe2Nb2O8,1.7818,12,6.641021,6.641021,6.736562,73.3821,73.3821,34.05469
10965,F3Rb1Tc1,0.4806,221,4.616682,4.616682,4.616682,90.0,90.0,90.0
10966,K2O8S2,3.496,2,5.60318,7.586929,5.100389,109.5278,87.60836,103.3198
10967,Cr2P2S8,0.9954000000000001,12,6.618607,6.618607,6.787225,88.38556,88.38556,68.61062
10968,Ba2Cl2H2,3.4843,129,4.426766,4.426766,7.302159,90.0,90.0,90.0
10969,Ba3Bi3Na3,0.3039,189,8.694203,8.694203,5.167994,90.0,90.0,120.0002
10970,Co2O12Sb4,0.7899,136,4.728275,4.728275,9.423637,90.0,90.0,90.0
10971,Ce8S20Zr4,1.0547,62,7.455869,8.113311,11.72254,90.0,90.01306,90.0
10972,La4O16Ta4,3.7008,14,5.656145,7.812111,7.90074,78.80699,90.0,90.0
10973,Bi1Rh1Ti1,0.7483000000000001,216,4.448953,4.448953,4.448953,60.0,60.0,60.0
10974,O3Pb1Ti1,1.6127,221,3.972677,3.972677,3.972677,90.0,90.0,90.0
10975,Cr2Dy2O8,0.18230000000000002,74,5.989847,5.989847,5.989847,116.6878,106.2495,105.7268
10976,Hf8O24Pb8,2.6848,55,5.892176,8.239605,11.78027,90.0,90.0,90.0
10977,Ag2Ga2Te4,0.5145000000000001,122,7.637392,7.637392,7.637392,129.8619,129.8619,73.62756
10978,Cd32I24Sb16,1.153,205,13.80489,13.80489,13.80489,90.0,90.0,90.0
10979,Cl6K2Pt1,1.9646,225,7.071243,7.071243,7.071243,60.0,60.0,60.0
10980,Dy12Fe20O48,1.682,230,10.85995,10.85995,10.85995,109.4712,109.4712,109.4712
10981,In6O12W1,1.9624000000000001,148,6.314694,6.314694,6.314694,99.18198,99.18198,99.18198
10982,Co2Cs4S4,2.1193,72,8.517979,8.517979,8.517979,135.3532,128.7237,70.3047
10983,Bi2Fe2O6,1.6708,161,5.741706,5.741706,5.741706,58.81296,58.81296,58.81296
10984,Ho2O8P2,5.9191,141,5.757279,5.757279,5.757279,105.9729,105.9729,116.7202
10985,Fe2K2S4,0.5567,15,6.748013,6.748013,6.026847,72.70609,72.70609,107.1142
10986,O10P2V2,2.1409,85,6.10951,6.10951,4.654347,90.0,90.0,90.0
10987,Cd4Nb4O14,2.0818,227,7.430248,7.430248,7.430248,60.0,60.0,60.0
10988,O8Si2Zr2,4.4639,141,5.621742,5.621742,5.621742,106.7618,106.7618,115.0377
10989,Cs8Sn4Te16,0.6017,62,7.761608,12.2047,12.9461,90.0,90.0,90.0
10990,Cl28Ga8In4,3.7916,33,9.420631,10.79025,12.3905,89.96443,90.0,90.0
10991,Cr4La4Se12,0.0921,62,4.061933,8.255788,14.03068,90.0,90.0,90.0
10992,Lu2O8P2,5.9882,141,5.670924,5.670924,5.670924,106.0455,106.0455,116.5641
10993,Ba4Cu16S12,0.8448,62,4.025165,10.74333,13.4247,90.0,90.0,90.0
10994,O3Sn1Tc1,0.1375,221,4.123181,4.123181,4.123181,90.0,90.0,90.0
10995,Cs2O8Re2,4.2228,141,8.623113,8.623113,8.623113,139.0293,139.0293,59.33013
10996,Cl6K2Sn1,2.1698,225,7.28108,7.28108,7.28108,60.0,60.0,60.0
10997,B4F16K4,7.8332,62,5.605341,7.189609,8.883844,90.0,90.0,90.0
10998,Mg4O8Si2,4.5912,164,6.014179,6.014179,4.826944,90.00145,89.99855,120.0002
10999,Ca1F3Rb1,6.3968,221,4.517395,4.517395,4.517395,90.0,90.0,90.0
11000,K8O12Sn4,1.8636,62,5.928169,7.112059,10.62683,90.0,90.0,90.0
11001,Ag3I1S1,0.9618000000000001,146,4.998264,4.998264,4.998264,89.98111,89.98111,89.98111
11002,Cu1Ga1O2,1.0314,166,6.017309,6.017309,6.017309,28.84454,28.84454,28.84454
11003,Mn2P2S6,1.3632,12,6.135041,6.135041,7.113407,81.78592,81.78592,120.0033
11004,F18Na2Th4,6.6753,121,7.857757,7.857757,7.857757,109.0289,109.0289,110.3596
11005,Cl4Na4O16,5.2539,62,5.580905,7.029775,8.204718,90.0,90.0,90.0
11006,Er8Ge8O28,3.6477,92,6.83188,6.83188,12.43252,90.0,90.0,90.0
11007,As8S16Tl8,1.708,14,11.62782,6.318103,12.81922,76.96623,90.0,90.0
11008,Ba4Cu8Se8,0.8247,62,4.242438,9.668592,10.86654,90.0,90.0,90.0
11009,Ag1N1O2,2.0287,44,4.462087,4.462087,4.462087,131.7588,106.8499,92.52982
11010,Cu28P4Se24,0.2144,198,10.15562,10.15562,10.15562,90.0,90.0,90.0
11011,I4O14Ti2,2.6292,36,6.675971,6.675971,7.266476,90.0,90.0,103.5005
11012,Li8O10W2,3.5657,2,7.897335,5.180523,5.143799,78.58739,70.77556,70.13308
11013,F6K2Re1,3.1725,164,5.991465,5.99147,4.698591,90.00096,89.999,120.0023
11014,Eu4I12O36,0.2321,14,5.947395,8.801428,17.28401,84.57055,90.0,90.0
11015,Ca9O15Si3,3.6865,160,9.518496,9.518496,9.518496,43.73467,43.73467,43.73467
11016,Na1Nb1O3,1.8357999999999999,221,3.987249,3.987249,3.987249,90.0,90.0,90.0
11017,As1Cu1Mg1,0.2503,216,4.284633,4.284633,4.284633,60.0,60.0,60.0
11018,Ni2Sc1V1,0.1187,216,4.230301,4.230301,4.230301,60.0,60.0,60.0
11019,Au4Cl16K4,1.4873,14,6.591572,9.113297,12.50224,82.96035,90.0,90.0
11020,C2Ni2O6,3.015,167,5.634328,5.634328,5.634328,48.76616,48.76616,48.76616
11021,Al1La1O3,3.1268,221,3.831807,3.831807,3.831807,90.0,90.0,90.0
11022,Al8Fe8O24,1.7543000000000002,33,5.038836,8.6518,9.402567,90.0,90.0,90.0
11023,Cl36Re3Te6,2.0959,148,14.24057,14.24005,14.23967,47.85545,47.85543,47.85428
11024,B4Mg6O12,5.1417,58,4.543425,5.457721,8.517672,90.0,90.0,90.0
11025,F12Na4Nb2,1.0604,136,5.198674,5.198674,10.1694,90.0,90.0,90.0
11026,B2H12N2,5.9243,36,4.609176,4.609176,6.269017,90.0,90.0,94.42353
11027,Mg4O12Si4,4.5371,15,6.531982,6.531982,5.059473,80.5793,80.5793,86.45464
11028,C4Cd2N4,6.1379,215,6.456663,6.456663,6.456663,90.0,90.0,90.0
11029,Ga2O8P2,4.5058,20,5.018646,5.018646,6.9985479999999995,90.0,90.0,89.6647
11030,Fe2P2S6,1.5069,12,6.021787,6.021787,7.279613,81.96337,81.96337,120.3379
11031,Ba8Cl28Gd4,4.588,14,15.75274,6.979419,10.69634,89.24142,90.0,90.0
11032,Br4Eu4I4,2.9942,62,4.832014,8.49512,9.800015,90.0,90.0,90.0
11033,Ce12N4S12,1.0229,62,4.1202,12.34509,13.28435,90.0,90.0,90.0
11034,Fe10Na6O18,1.5393,15,9.106006,9.106006,5.322552,89.81334,89.81334,84.1556
11035,Li2Mg1Si1,0.0911,216,4.499032,4.499032,4.499032,60.0,60.0,60.0
11036,O6Th1Ti2,3.5066,12,5.412468,5.412468,7.300709,63.23371,63.23371,42.61384
11037,Al4O8Zn2,4.4909,227,5.73135,5.73135,5.73135,60.0,60.0,60.0
11038,Cr4S8Zn2,1.1691,227,7.137625,7.137625,7.137625,60.0,60.0,60.0
11039,Cl8O32Ti2,3.3101000000000003,15,7.76367,7.76367,13.61251,73.16462,73.16462,63.12843
11040,Na12O8Tl4,1.8635000000000002,62,5.386711,6.79634,11.60499,90.0014,90.0,90.0
11041,Ga8O32Rb40,1.8613,61,7.05653,12.08894,21.55379,90.0,90.0,90.0
11042,Ca8Cd4Sb8,0.3106,62,4.655618,7.310981,17.65575,90.0,90.0,90.0
11043,Al4O10Si2,5.5489,15,5.302232,5.302232,6.700027,70.32465,70.32465,52.82873
11044,Au1Cl2Li1,0.9337000000000001,225,4.789252,4.789252,4.789252,60.0,60.0,60.0
11045,Cd2H4O4,1.8521,8,6.281134,6.281134,3.4473700000000003,103.8862,103.8862,119.2381
11046,Ce4O14Zr4,2.9988,227,7.697503,7.697503,7.697503,60.0,60.0,60.0
11047,Ca4Mn4O12,0.3922,62,5.329422,5.41341,7.569094,90.0,90.0,90.0
11048,C16O8Se4,1.4901,58,4.571497,9.250322,11.71154,90.0,90.0,90.0
11049,Cl6K2Pd1,1.1328,225,7.03075,7.03075,7.03075,60.0,60.0,60.0
11050,Be4F16Tl8,4.4278,62,5.94744,7.792609,10.61016,90.0,90.0,90.0
11051,Nd8O32Os8,0.27140000000000003,33,5.568807,7.663286,15.13742,90.0,90.0,90.0
11052,Nb2Nd6O14,3.0458,63,6.702386,6.702386,7.75907,90.0,90.0,110.8633
11053,Ca18O54Te18,2.9372,2,13.93966,10.58911,11.38148,108.8725,103.3632,85.73572
11054,F3K1Zn1,5.1745,221,4.045225,4.045225,4.045225,90.0,90.0,90.0
11055,Ca1Cs1F3,6.9061,221,4.580907,4.580907,4.580907,90.0,90.0,90.0
11056,F3Hg1Rb1,0.6537000000000001,221,4.627756,4.627756,4.627756,90.0,90.0,90.0
11057,Cd4O14Ta4,2.1169000000000002,227,7.44938,7.44938,7.44938,60.0,60.0,60.0
11058,Ge6Li6Te12,0.31220000000000003,2,7.329933,11.47148,9.237673,75.80311,70.6061,77.08941
11059,Al8O20Si4,4.8388,58,5.612425,7.863419,7.972364,90.0,90.0,90.0
11060,O12Rh4U2,1.4152,136,4.846401,4.846401,9.496847,90.0,90.0,90.0
11061,Ge2In2O7,1.5363,12,5.757703,5.757703,6.7939,77.69368,77.69368,111.2023
11062,Ni6O16P4,3.2472,14,4.745982,5.896193,10.21835,89.1633,90.0,90.0
11063,Al2S4Zn1,0.2436,160,12.31319,12.31319,12.31319,17.13074,17.13074,17.13074
11064,Co2K4Se4,1.7585000000000002,72,8.180529,8.180529,8.180529,133.1154,129.0085,71.7656
11065,Cl24Hf2Se4,2.7880000000000003,43,12.51742,12.2562,8.721951,71.00114,67.78833,41.21053
11066,Cu2In2Te4,0.2474,122,7.721279,7.721279,7.721279,131.906,131.906,70.3775
11067,As2O8Y2,3.6553,141,5.988727,5.988727,5.988727,106.4371,106.4371,115.7264
11068,Cr3In1O8,0.2155,12,6.51225,5.126835,5.126835,66.93395,89.61219,89.61219
11069,Br18Cs6Er4,4.2345,167,10.43647,10.43647,10.43647,83.6148,83.6148,83.6148
11070,Be2Mg1N2,4.063,164,2.958138,2.958128,5.101533,89.99999,90.0,120.0001
11071,Ba2O16V6,1.583,4,5.631598,7.5910969999999995,8.359771,72.69125,89.99663,90.00199
11072,Al8O20Si4,4.8468,58,5.609073,7.876422,7.983872,90.0,90.0,90.0
11073,K2Li2Te2,2.4325,129,4.849721,4.849721,7.759836,90.0,90.0,90.0
11074,Ca2Cl2H2,3.8508,129,3.819001,3.819001,6.956341,90.0,90.0,90.0
11075,Cr4La4O12,2.0658,62,5.601762,5.618771,7.914358,90.0,90.0,90.0
11076,Cs8I24Sn4,0.1169,225,12.05829,12.05829,12.05829,90.0,90.0,90.0
11077,Dy2O8V2,2.9579,141,6.007872,6.007872,6.007872,106.2382,106.2382,116.151
11078,Cu4S26U12,1.1126,15,8.222427,8.222427,14.62407,80.78716,80.78716,100.4694
11079,La8O32Ta8,2.8155,61,7.620362,8.015215,11.34856,90.0,90.0,90.0
11080,Na1Se2V1,0.3099,12,3.819563,3.819563,7.301592,74.55731,74.55731,59.28241
11081,Be2Na2Sb2,0.8879,194,4.166302,4.166302,9.328206,90.0,90.0,119.9963
11082,C4O12Rb8,3.2677,62,6.025895,7.608475,10.11643,90.0,90.0,90.0
11083,O7Sc2Si2,4.6559,12,5.447301,5.447301,4.746923,82.43642,82.43642,105.2798
11084,F18K10Th2,5.7056000000000004,36,7.698615,7.698615,11.10466,90.0,90.0,117.2857
11085,Ca8O24Ti8,2.6173,59,7.794371,7.788117,7.725392,90.0,89.99683,90.0
11086,Mg2O8Rh4,2.1916,227,6.118548,6.118548,6.118548,60.0,60.0,60.0
11087,Ag4Hg2S4,0.6956,14,8.188298,4.123092,6.716882,73.21112,90.0,90.0
11088,F3Sn1Tl1,0.8669,221,4.754853,4.754853,4.754853,90.0,90.0,90.0
11089,O8W2Zn2,3.0739,13,5.750798,4.676317,4.954654,89.24725,90.0,90.0
11090,Ca8O24Ti8,2.6166,59,7.79437,7.788107,7.725385,90.0,89.9968,90.0
11091,F3Hg1W1,1.2332,221,4.321989,4.321989,4.321989,90.0,90.0,90.0
11092,Ca2O22Ta8,3.7932,182,6.298509,6.298509,12.43043,90.0,90.0,119.9999
11093,Ge8S20Tl8,2.0507,15,10.91027,10.91027,9.019348,79.11125,79.11125,90.08271
11094,Ag4Na4O4,1.3073000000000001,139,7.221176,7.221176,7.221176,95.93616,95.93616,142.4818
11095,Li8O12Ti4,3.4825,15,5.15739,5.157231,9.88401,84.9354,84.92803,120.1082
11096,O8P2V2,1.4201000000000001,63,4.752626,4.752626,6.490163,90.0,90.0,112.5326
11097,As4B8Cl8,3.3936,2,7.864357,7.461194,11.51123,79.44668,70.96917,60.66129
11098,Ba4O16S4,5.9533000000000005,62,5.55309,7.274797,9.015224,90.0,90.0,90.0
11099,C6La12O30,3.9521,15,7.169644,7.169644,16.6784,77.67166,77.67166,60.07107
11100,Cr2O8Tb2,0.6591,88,6.743671,6.743671,6.743671,135.8271,135.8271,64.2478
11101,O16Pb4S4,4.0027,62,5.484481,7.060461,8.577926,90.0,90.0,90.0
11102,Au6Sb8Y6,0.4792,220,8.608712,8.608712,8.608712,109.4712,109.4712,109.4712
11103,In6O12Re1,0.4838,148,6.312592,6.312592,6.312592,99.20197,99.20197,99.20197
11104,I2N6Rb4,3.9363,127,6.379453,6.379453,8.252983,90.0,90.0,90.0
11105,Co4Nb8O24,3.1849,60,5.086805,5.779058,14.36601,90.0,90.0,90.0
11106,Pt1Rb2Se2,1.3554,71,6.695152,6.695152,6.695152,146.7847,109.9663,79.74171
11107,Er8Eu4Se16,1.1964000000000001,62,4.10878,12.50353,14.85347,90.0,90.0,90.0
11108,B1Cd1F3,1.5247000000000002,221,4.396236,4.396236,4.396236,90.0,90.0,90.0
11109,O4Rb2Sc2,3.7087,194,3.319751,3.319743,12.92158,90.0,90.0,120.0001
11110,F3Ga1Zn1,3.6925,221,4.03453,4.03453,4.03453,90.0,90.0,90.0
11111,La8O20Ru4,0.8644000000000001,14,5.983964,8.021026,9.418065,79.62636,90.0,90.0
11112,C4Ca4O12,4.1686,62,5.784871,5.021227,8.061448,90.0,90.0,90.0
11113,Ga2O8P2,4.4983,20,4.995635,4.995635,6.920795,90.0,90.0,90.28593
11114,Cr2Ni2O8,1.8252000000000002,63,5.033698,5.033698,6.271454,90.0,90.0,113.4045
11115,Ir4Sb4Te4,0.661,198,6.461685,6.461685,6.461685,90.0,90.0,90.0
11116,O8Pb2W2,3.2712,88,7.28131,7.28131,7.28131,135.2971,135.2971,65.06888
11117,B8O16Sr4,4.9374,60,4.386623,6.776143,12.07554,90.0,90.0,90.0
11118,Al4O24S6,6.0201,148,8.599488000000001,8.599488000000001,8.599488000000001,56.66308,56.66308,56.66308
11119,Ag2F6Rb2,0.23900000000000002,140,6.294061,6.294061,6.294061,118.9758,118.9758,91.78339
11120,Li4O12V4,2.7705,9,7.760104,7.760104,5.798014,67.81565,67.81565,84.89737
11121,Cl18Nb6Rb4,1.1338,12,10.09843,10.09843,9.952918,76.52806,76.52806,116.2362
11122,K2O22V12,0.1232,36,5.847714,5.898907,13.51682,90.0,90.0,119.7133
11123,Cu8O20Y8,1.4596,33,3.535819,10.91526,12.58034,90.0,90.0,90.0
11124,F6K3Mo1,2.5385,225,6.496032,6.496032,6.496032,60.0,60.0,60.0
11125,Mg4O8Si2,4.7615,227,5.762865,5.762865,5.762865,60.0,60.0,60.0
11126,O14Ti4Y4,3.2884,227,7.240498,7.240498,7.240498,60.0,60.0,60.0
11127,As6H2Sr10,0.6778000000000001,193,8.995645,8.995586,7.155338,90.0,90.0,120.0002
11128,H27K6Re3,5.2284,189,9.50792,9.50792,5.539471,90.0,90.0,119.9951
11129,Cl16Rb8Zn4,4.7053,62,7.28628,9.392061,13.07662,90.0,90.0,90.0
11130,Ca2Mo2O8,3.3445,88,6.905381,6.905381,6.905381,134.8766,134.8766,65.72197
11131,Mn2S8Sb4,1.205,12,6.696198,6.696198,15.50879,67.33472,67.33472,33.40369
11132,I4Nb4O8,0.7592,62,3.807608,3.921629,21.98472,89.99235,90.0,90.0
11133,Au4I4Te4,0.9299000000000001,14,7.75068,7.776345,7.44101,72.45574,90.0,90.0
11134,O28Sr8V8,3.3286,2,7.23931,13.14179,7.182155,93.65619,91.10107,98.95419
11135,Ca1Se2Sn1,0.21580000000000002,225,5.237268,5.237268,5.237268,60.0,60.0,60.0
11136,Al4O12Y4,5.5421,62,5.226484,5.382738,7.448375,90.0,90.0,90.0
11137,O22U4V4,3.0881,14,13.31615,5.947057,6.85821,70.6339,90.0,90.0
11138,Cu6O8Pb1,0.1957,225,6.6273,6.6273,6.6273,60.0,60.0,60.0
11139,Ge2Mg2O6,2.4236,63,4.948952,4.948952,7.028924,90.0,90.0,146.5078
11140,O3Rh1Ti1,0.23240000000000002,221,3.906237,3.906237,3.906237,90.0,90.0,90.0
11141,C1Li1Sc1,1.0565,216,3.815803,3.815803,3.815803,60.0,60.0,60.0
11142,Cl4Cs3Li1,4.7437000000000005,38,6.897448,6.897448,10.17313,90.0,90.0,143.2989
11143,F8Na4Pd2,2.6052,14,5.689816,3.484175,10.20419,85.70936,90.0,90.0
11144,Nd8S20Zr4,0.9543,62,7.40692,7.99639,11.69411,90.0,90.0,90.0
11145,Gd6O14Ru2,1.0797,63,6.5028310000000005,6.5028310000000005,7.505909,90.0,90.0,110.471
11146,Co1O3Y1,1.1006,221,3.729301,3.729301,3.729301,90.0,90.0,90.0
11147,O8W2Zn2,3.0687,13,5.743256,4.674288,4.9575759999999995,89.44788,90.0,90.0
11148,N8O20S12,2.7269,14,10.36103,8.151841,8.613098,68.50145,89.99054,89.99937
11149,As4S16Tl12,1.6503999999999999,62,9.217232,9.337582,11.14076,90.0,90.0,90.0
11150,H3I1Sr2,2.0685000000000002,164,4.236567,4.236567,7.689196,90.00113,89.99887,119.9999