,full_formula,DebyeTemp,spacegroup.number,structure.lattice.a,structure.lattice.b,structure.lattice.c,structure.lattice.alpha,structure.lattice.beta,structure.lattice.gamma
3942,Er6Ge26Rh8,331.423,223,8.985165,8.985165,8.985165,90.0,90.0,90.0
3943,Ga8N4V12,553.202,213,6.644525,6.644525,6.644525,90.0,90.0,90.0
3944,Dy4Ge4Ni4,309.273,62,4.216521,6.920192,7.273957,90.0,90.0,90.0
3945,La2P4Rh4,375.006,129,4.246155,4.246155,9.565901,90.0,90.0,90.0
3946,P4Rh4Zr4,466.442,62,3.808536,6.52967,7.447905,90.0,90.0,90.0
3947,Au4Bi2Tb10,151.587,140,8.751603,8.751603,8.751603,124.4455,124.4455,82.45848
3948,Pd4Si6Y6,375.568,63,5.65221,5.65221,14.17045,90.0,90.0,135.8239
3949,Co2Ge1Mn1,333.626,225,4.310502,4.310502,4.310502,60.0,60.0,60.0
3950,As7Mg6Ni16,379.441,225,8.101518,8.101518,8.101518,60.0,60.0,60.0
3951,Sb6Si2Zr10,366.057,193,8.665635,8.665635,5.859132,90.0,90.0,119.9995
3952,N4Zn12Zr12,411.868,227,8.607758,8.607758,8.607758,60.0,60.0,60.0
3953,F4Ni1Rb2,283.947,139,7.548747,7.548747,7.548747,148.0355,148.0355,45.83302
3954,Mn1Ni6O8,569.643,225,5.959363,5.959363,5.959363,60.0,60.0,60.0
3955,Ba3Co3O6,300.043,152,5.975097,5.975098,6.828517,89.99966,90.00003,120.0006
3956,F6Mn1Rb2,187.56,225,6.128201,6.128201,6.128201,60.0,60.0,60.0
3957,Ga1Li1Mg2,306.043,225,4.717238,4.717238,4.717238,60.0,60.0,60.0
3958,Ba4Cu8Te8,198.173,62,4.481276,10.19578,11.56601,90.0,90.0,90.0
3959,B1Dy1Rh3,382.58,221,4.192142,4.192142,4.192142,90.0,90.0,90.0
3960,Ba1O3Zr1,512.4,221,4.256882,4.256882,4.256882,90.0,90.0,90.0
3961,Er4Pd4Sn4,208.031,62,4.661612,7.165979,7.982423,90.0,90.0,90.0
3962,Eu2F8Mg2,323.49,63,7.7510829999999995,7.7510829999999995,5.614814,90.0,90.0,149.4008
3963,P7Pd9Zr5,332.988,38,13.6812,13.6812,3.819124,90.0,90.0,152.3238
3964,F3K1V1,420.209,221,4.220305,4.220305,4.220305,90.0,90.0,90.0
3965,Cu1Mg1Sn1,237.412,216,4.43288,4.43288,4.43288,60.0,60.0,60.0
3966,Al1B1Be1,1090.74,216,3.509194,3.509194,3.509194,60.0,60.0,60.0
3967,Nb4Pt4Si4,349.023,62,3.834769,6.489917,7.41662,90.0,90.0,90.0
3968,Ba1Ce1O3,375.87,221,4.504931,4.504931,4.504931,90.0,90.0,90.0
3969,Ni1Sn1Ti1,369.289,216,4.245188,4.245188,4.245188,60.0,60.0,60.0
3970,Mg2S8Sc4,368.858,227,7.625381,7.625381,7.625381,60.0,60.0,60.0
3971,Ho1Ni2Si2,402.527,139,5.468357,5.468357,5.468357,137.6081,137.6081,61.50378
3972,Ni2Sn1Yb1,207.263,225,4.592811,4.592811,4.592811,60.0,60.0,60.0
3973,Ce2Ni12P7,434.814,174,9.005792,9.006436,3.700621,90.0,90.0,120.0012
3974,Hf4O4S4,351.725,198,5.702304,5.702304,5.702304,90.0,90.0,90.0
3975,Ge3Hf3Mn3,343.677,189,6.894095,6.894095,3.8530860000000002,90.0,90.0,119.9998
3976,Dy6Ge26Rh8,342.666,223,8.999441,8.999441,8.999441,90.0,90.0,90.0
3977,Pt2Sc2Zn2,273.032,63,5.17026,5.17026,5.302613,90.0,90.0,131.9383
3978,Cl6K2Mn1,181.383,225,7.0201,7.0201,7.0201,60.0,60.0,60.0
3979,Cu4In1Yb1,268.139,216,5.138341,5.138341,5.138341,60.0,60.0,60.0
3980,Ba1Nb1O3,490.101,221,4.140203,4.140203,4.140203,90.0,90.0,90.0
3981,Al2Ge2Sc2,423.378,63,5.399795,5.399795,5.582508,90.0,90.0,136.6274
3982,P12Ru4Tb1,522.044,204,6.994247,6.994247,6.994247,109.4712,109.4712,109.4712
3983,In1N1Tb3,307.209,221,4.849789,4.849789,4.849789,90.0,90.0,90.0
3984,Ge3Mn3Rh3,331.782,189,6.649317,6.649317,3.655696,90.0,90.0,120.0028
3985,Au1Bi1Li2,131.182,216,4.815463,4.815463,4.815463,60.0,60.0,60.0
3986,Dy1Ir2Si2,381.658,139,5.733377,5.733377,5.733377,138.5454,138.5454,60.06874
3987,C1Lu3Sn1,311.62,221,4.746353,4.746353,4.746353,90.0,90.0,90.0
3988,Bi8Ce6Pt6,206.906,220,8.660793,8.660793,8.660793,109.4712,109.4712,109.4712
3989,Pd2Se4Tl4,106.913,55,3.7198700000000002,6.228128,11.54344,90.0,90.0,90.0
3990,Cu2Hf8P2,227.275,124,6.470938,6.470938,5.249189,90.0,90.0,90.0
3991,Ga2Se4Tl2,156.701,140,6.651419,6.651419,6.651419,103.8615,103.8615,121.3893
3992,C4Nb16Zn8,431.407,227,8.445537999999999,8.445537999999999,8.445537999999999,60.0,60.0,60.0
3993,Ge2Os2Th1,311.054,139,5.920036,5.920036,5.920036,136.9814,136.9814,62.46673
3994,Cs2Gd2S4,231.641,194,4.161272,4.161272,16.11701,90.0,90.0,120.0008
3995,Co2S6Ta9,272.785,189,10.34516,10.34557,3.336814,90.0,90.0,119.9987
3996,Er4Ir4Si4,312.156,62,4.207655,6.799407,7.368395,90.0,90.0,90.0
3997,Ag2Dy2Se4,188.239,109,7.418569,7.418569,7.418569,134.9127,134.9127,65.66594
3998,Rh2Si2Y1,456.646,139,5.741737,5.741737,5.741737,138.7075,138.7075,59.82109
3999,In4Rh2Yb2,194.44,63,5.593338,5.593338,8.222388,90.0,90.0,135.6553
4000,Cs1F3Mg1,365.246,221,4.255417,4.255417,4.255417,90.0,90.0,90.0
4001,B6H6K2,370.037,225,6.300072,6.300072,6.300072,60.0,60.0,60.0
4002,P1Pt1Y1,282.827,187,4.115554,4.115135,3.897633,90.0,90.0,120.0034
4003,Ca2Ir2Sn4,233.366,63,5.892137,5.892137,7.7772,90.0,90.0,136.7676
4004,Mg2O12Ta4,516.407,136,4.787341,4.787341,9.309586,90.0,90.0,90.0
4005,B8Os6Sc2,549.388,63,6.109682,6.109682,9.884792,90.0,90.0,151.8988
4006,Cu1Mg1Sn1,122.939,216,4.582012,4.582012,4.582012,60.0,60.0,60.0
4007,Al1Co2Ti1,493.657,225,4.282071,4.282071,4.282071,60.0,60.0,60.0
4008,Cd1Cs1F3,264.029,221,4.54951,4.54951,4.54951,90.0,90.0,90.0
4009,Bi4Ir4Se4,272.245,198,6.368361,6.368361,6.368361,90.0,90.0,90.0
4010,Al1Fe2V1,696.039,225,4.035492,4.035492,4.035492,60.0,60.0,60.0
4011,Ag3Er3Ge3,279.187,189,7.153043,7.153043,4.198202,90.0,90.0,119.9984
4012,Al4Li4O8,669.082,92,5.23068,5.23068,6.326856,90.0,90.0,90.0
4013,Ge4Pt4Zr4,336.369,62,4.001737,6.710299,7.739071,90.0,90.0,90.0
4014,Li4O10Si4,657.391,37,7.973222,7.973222,4.846839,90.0,90.0,136.6413
4015,Cu2O3Sr1,400.061,65,6.126,6.126,3.544858,90.0,90.0,142.1683
4016,Ca3Cd3Pb3,183.431,189,7.883296,7.883296,4.775509,90.0,90.0,120.002
4017,Al6C6Gd2,709.765,194,3.448474,3.448474,17.45514,90.0,90.0,120.0008
4018,Ge6Ir7Y4,355.887,229,7.26138,7.26138,7.26138,109.4712,109.4712,109.4712
4019,As1Mn1Pd2,204.83,225,4.475056,4.475056,4.475056,60.0,60.0,60.0
4020,Al10C6N2,889.69,194,3.345022,3.345022,20.96875,90.0,90.0,119.9994
4021,Al1F6K3,288.196,225,6.152625,6.152625,6.152625,60.0,60.0,60.0
4022,Ba3O1Pb1,200.026,221,5.555296,5.555296,5.555296,90.0,90.0,90.0
4023,Al1Si1Sr1,392.52,187,4.268008,4.268008,4.754956,90.0,90.0,119.996
4024,Al1C1Gd3,306.916,221,4.967734,4.967734,4.967734,90.0,90.0,90.0
4025,Cl8Mg2Na4,274.616,55,3.84301,6.957314,12.00043,90.0,90.0,90.0
4026,Br24Cs8Te4,98.7956,225,11.31838,11.31838,11.31838,90.0,90.0,90.0
4027,Mn6Sn6Zr1,246.885,191,5.850385,5.850385,9.617926,90.0,90.0,119.9998
4028,Ge26Rh8Tb6,345.139,223,9.014235,9.014235,9.014235,90.0,90.0,90.0
4029,Dy4Pd4Sn4,218.013,62,4.668964,7.23269,7.995747,90.0,90.0,90.0
4030,Au1Mn1Sn1,163.792,216,4.602489,4.602489,4.602489,60.0,60.0,60.0
4031,Cd3Dy3Ga3,277.079,189,7.267562,7.267562,4.407054,90.0,90.0,120.0012
4032,La1P2Ru2,382.931,139,6.14854,6.14854,6.14854,141.5344,141.5344,55.53079
4033,In2Li1Rh1,261.367,225,4.586184,4.586184,4.586184,60.0,60.0,60.0
4034,B4Co4Re4,436.933,62,2.9849930000000002,5.890459,7.2305209999999995,90.0,90.0,90.0
4035,Ge4Ru4Tb4,239.856,62,4.349621,6.899843,7.559151,90.0,90.0,90.0
4036,B2Ru3Tb1,396.191,191,5.494103,5.494764,3.046467,90.0,90.0,119.996
4037,O14Sn4Y4,521.808,227,7.498914,7.498914,7.498914,60.0,60.0,60.0
4038,Au6Ho6Sb8,214.656,220,8.567173,8.567173,8.567173,109.4712,109.4712,109.4712
4039,I1K3O1,224.032,221,5.369199,5.369199,5.369199,90.0,90.0,90.0
4040,As1Pt5Tl1,215.667,123,4.04376,4.04376,7.205353,90.0,90.0,90.0
4041,Rh6Sn6Zr6,311.588,190,7.439929,7.439929,7.287183,90.0,90.0,120.0006
4042,Ca2Ga4P4,422.642,194,3.860979,3.860875,16.53449,90.0,90.0,120.0009
4043,Au1Si1Th1,271.115,187,4.322335,4.322167,4.286977,90.0,90.0,120.0013
4044,B1In1La3,219.466,221,5.372862,5.372862,5.372862,90.0,90.0,90.0
4045,Ca4O8Pb2,401.37,55,3.423227,5.887615,9.928256,90.0,90.0,90.0
4046,Co2P2Ta8,362.554,124,6.159382,6.159382,5.039326,90.0,90.0,90.0
4047,H3Li1Sr1,298.039,221,4.626961,4.626961,4.626961,90.0,90.0,90.0
4048,Pt4S4Sb4,227.549,198,6.268036,6.268036,6.268036,90.0,90.0,90.0
4049,Cd2Ge4Tb4,276.029,127,7.341852,7.341852,4.211296,90.0,90.0,90.0
4050,Ag2In1Mg1,205.472,225,4.785177,4.785177,4.785177,60.0,60.0,60.0
4051,Cr2K2O4,579.449,194,3.119618,3.119618,12.00234,90.0,90.0,120.0003
4052,F2Gd2S2,353.266,129,3.852944,3.852944,6.912597,90.0,90.0,90.0
4053,Ge4Ir4La2,258.045,129,4.313835,4.313835,10.15264,90.0,90.0,90.0
4054,Ge2Rh2Sr1,332.134,139,6.168231,6.168231,6.168231,139.9346,139.9346,57.95257
4055,F3K1Pd1,311.497,221,4.380726,4.380726,4.380726,90.0,90.0,90.0
4056,B24Os4Y8,746.739,55,3.6625170000000002,9.173663,11.54872,90.0,90.0,90.0
4057,Na2O8Pd6,380.651,223,5.751311,5.751311,5.751311,90.0,90.0,90.0
4058,Ga9Ho3Ru3,324.14,221,6.3964300000000005,6.3964300000000005,6.3964300000000005,90.0,90.0,90.0
4059,Os2Si2Tb1,347.172,139,5.641945,5.641945,5.641945,136.3543,136.3543,63.43312
4060,Cd1F3K1,296.913,221,4.455673,4.455673,4.455673,90.0,90.0,90.0
4061,Ba2Mo6Se6,242.295,176,9.068305,9.067222,4.545774,90.0,90.0,120.0008
4062,Ba1Pt1Si3,334.081,107,5.94831,5.94831,5.94831,136.2066,136.2066,63.66107
4063,Ho1Pd2Sn1,197.576,225,4.796257,4.796257,4.796257,60.0,60.0,60.0
4064,Ag2O4Y2,286.599,194,3.5393850000000002,3.53947,12.65421,90.0,90.0,119.9992
4065,Ge4Ho4Ru4,262.861,62,4.421999,7.019096,7.209667,90.0,90.0,90.0
4066,B8Ru4Y4,547.318,62,5.318764,5.938262,6.379148,90.0,90.0,90.0
4067,P2Rh2Sr1,317.593,139,6.504239,6.504239,6.504239,144.7327,144.7327,50.733
4068,Al3Pt3Th3,215.118,189,7.4597,7.4597,4.203144,90.0,90.0,120.0002
4069,Ba4Ca4Pb4,166.492,62,5.386171,8.988422,9.8758,90.0,90.0,90.0
4070,Ge4Ir4Tb4,265.962,62,4.344408,6.933047,7.538834,90.0,90.0,90.0
4071,Cl24Cs8Pb4,96.2311,225,10.83932,10.83932,10.83932,90.0,90.0,90.0
4072,Cl4Pd1Tl2,122.409,123,7.236686,7.236686,4.29219,90.0,90.0,90.0
4073,Bi2Cu2Sr2,214.171,194,4.686129,4.68599,8.898838,90.0,90.0,120.001
4074,Ni4Sc1Sn1,272.713,216,4.917048,4.917048,4.917048,60.0,60.0,60.0
4075,Cr2F6K2,355.214,140,5.985443,5.985443,5.985443,118.1798,118.1798,93.18275
4076,In3Rh3Y3,229.124,189,7.491859,7.491859,3.935177,90.0,90.0,120.0006
4077,Cd1Ho1Ni4,300.616,216,4.948026,4.948026,4.948026,60.0,60.0,60.0
4078,C4Zn12Zr12,393.404,227,8.672151,8.672151,8.672151,60.0,60.0,60.0
4079,C1Pb1Y3,280.345,221,4.927298,4.927298,4.927298,90.0,90.0,90.0
4080,Al2Cu4Re4,352.532,127,5.872389,5.872389,3.9690019999999997,90.0,90.0,90.0
4081,H6Pd2Ti4,443.515,123,2.951391,2.951391,13.06639,90.0,90.0,90.0
4082,Ba2Cu4Sb4,235.168,129,4.70944,4.70944,10.92451,90.0,90.0,90.0
4083,Pd4Sb4Se4,223.749,198,6.411979,6.411979,6.411979,90.0,90.0,90.0
4084,Na4O8W2,340.993,227,6.540265,6.540265,6.540265,60.0,60.0,60.0
4085,Ba4S12Zr4,312.915,62,7.19287,7.043252,10.08262,90.0,90.0,90.0
4086,B1Sc3Sn1,473.759,221,4.737887,4.737887,4.737887,90.0,90.0,90.0
4087,Pd4Sb4Zr4,241.579,62,4.345469,6.864226,8.010048,90.0,90.0,90.0
4088,Cu2Ga2Zr2,362.407,194,4.245913,4.245913,6.466174,90.0,90.0,120.0007
4089,In4Rh4Tb16,206.436,216,9.679387,9.679387,9.679387,60.0,60.0,60.0
4090,Hf4O14Y4,495.957,227,7.442696,7.442696,7.442696,60.0,60.0,60.0
4091,B2Co3Y1,612.906,191,5.02401,5.02401,2.95635,90.0,90.0,120.0001
4092,Co1Sb1Ti1,405.228,216,4.161565,4.161565,4.161565,60.0,60.0,60.0
4093,O14Ti4Y4,650.523,227,7.241779,7.241779,7.241779,60.0,60.0,60.0
4094,F3K1Mn1,390.69,221,4.266333,4.266333,4.266333,90.0,90.0,90.0
4095,As2Sb6Zr10,318.11,193,8.665583999999999,8.66552,5.956281,90.0,90.0,120.0002
4096,In3Pd3Y3,215.542,189,7.690211,7.690211,3.874989,90.0,90.0,120.0019
4097,Na1O3Ta1,573.296,221,3.99566,3.99566,3.99566,90.0,90.0,90.0
4098,C2Ge6Mo10,427.574,193,7.489392,7.489419,5.346572,90.0,90.0,119.9999
4099,F6Na1Sb1,223.837,225,6.002956,6.002956,6.002956,60.0,60.0,60.0
4100,C1Mn3Zn1,385.419,221,4.199395,4.199395,4.199395,90.0,90.0,90.0
4101,As2Ba1Pd2,253.055,139,6.120721,6.120721,6.120721,136.4747,136.4747,63.24726
4102,Ga2In2Te4,160.621,140,6.917693,6.917693,6.917693,104.0619,104.0619,120.9346
4103,Cu2O4Y2,353.126,194,3.557043,3.557083,11.47449,90.0,90.0,119.9996
4104,Er4Ge6Ir7,337.652,229,7.220254,7.220254,7.220254,109.4712,109.4712,109.4712
4105,Ag2Al2Se4,213.309,122,6.990415,6.990415,6.990415,128.3516,128.3516,76.05609
4106,Mn3N1Zn1,407.278,221,4.190545,4.190545,4.190545,90.0,90.0,90.0
4107,Au6Sb8Tb6,214.985,220,8.603984,8.603984,8.603984,109.4712,109.4712,109.4712
4108,Ge6Os7Sc4,350.808,229,7.122654,7.122654,7.122654,109.4712,109.4712,109.4712
4109,Au2Dy2Sn2,197.199,194,4.739312,4.739312,7.41301,90.0,90.0,119.9973
4110,Hf2O8Si2,582.056,141,5.564857,5.564857,5.564857,106.9235,106.9235,114.6964
4111,Co4Si6Zr6,487.336,63,5.388413,5.388413,13.29073,90.0,90.0,137.3869
4112,B8Rh8Th2,405.563,137,5.394207,5.394207,7.676995,90.0,90.0,90.0
4113,Cl4La4Te4,225.797,62,4.552407,8.065964,9.561409,90.0,90.0,90.0
4114,Sn2Te10Tl4,114.853,140,9.757528,9.757528,9.757528,128.1717,128.1717,76.34697
4115,Cl4K2Mg1,262.604,139,8.640584,8.640584,8.640584,146.3381,146.3381,48.3449
4116,B24Ru4Y8,820.383,55,3.670563,9.159665,11.53097,90.0,90.0,90.0
4117,Ce4Rh12Si1,274.564,229,7.199496,7.199496,7.199496,109.4712,109.4712,109.4712
4118,Ag1Nb1O3,517.656,221,4.000268,4.000268,4.000268,90.0,90.0,90.0
4119,Br1Li3O1,480.192,221,4.005343,4.005343,4.005343,90.0,90.0,90.0
4120,Cr4Ga2N2,501.939,194,3.034219,3.034248,13.37033,90.0,90.0,120.0003
4121,Cu3In3La3,201.629,189,7.630667,7.630667,4.317803,90.0,90.0,119.9985
4122,Dy4Ru4Si4,291.217,62,4.361496,7.001839,7.010961,90.0,90.0,90.0
4123,As4Ba4Cd2,197.005,36,9.110848,9.110848,8.206554,89.99999,90.00001,150.4427
4124,Si2Ta4V6,329.57,194,5.056417,5.05648,8.314602,90.0,90.0,119.9996
4125,Na4O12Sb4,543.726,227,7.340212,7.340212,7.340212,60.0,60.0,60.0
4126,Ni4P4Ta5,420.136,87,7.258727,7.258727,7.258727,93.39133,93.39133,151.8468
4127,Au4La4O12,313.19,57,4.114716,5.771528,13.29827,90.0,90.0,90.0
4128,Os2P2Sr1,290.12,139,6.32329,6.32329,6.32329,142.2802,142.2802,54.40689
4129,Br10Pb4Rb2,120.729,140,9.692396,9.692396,9.692396,127.6677,127.6677,77.16397
4130,C2Co1Ho1,467.327,38,3.731486,3.731486,3.511222,90.0,90.0,106.574
4131,Al1C1Er3,168.199,221,5.307423,5.307423,5.307423,90.0,90.0,90.0
4132,Mn2O6Y2,511.65,194,3.626198,3.626198,11.44818,90.0,90.0,120.0024
4133,Ce2Co2Si4,438.771,63,8.288299,8.288299,4.017557,90.0,90.0,151.7774
4134,Ba1O3Pa1,248.232,221,4.504611,4.504611,4.504611,90.0,90.0,90.0
4135,B1Rh6Ti2,447.224,225,5.591585,5.591585,5.591585,60.0,60.0,60.0
4136,Al2Y2Zn2,400.981,194,4.472905,4.472905,7.23875,90.0,90.0,120.001
4137,In4La4O12,384.259,62,5.790782,6.016458,8.335755,90.0,90.0,90.0
4138,Ga2Hg1Te4,164.669,82,7.449283,7.449283,7.449283,130.3588,130.3588,72.83388
4139,Fe1H6Mg2,794.88,225,4.492789,4.492789,4.492789,60.0,60.0,60.0
4140,Ga2La2Zn2,298.434,194,4.550405,4.550405,7.981253,90.0,90.0,120.0012
4141,B2Ir3Th1,382.851,191,5.513389,5.51415,3.24931,90.0,90.0,119.9954
4142,Ge4Pt4Sr4,176.671,198,6.665645,6.665645,6.665645,90.0,90.0,90.0
4143,Ge2Pt2Th1,218.389,139,5.922475,5.922475,5.922475,136.0155,136.0155,63.9563
4144,B2O8Ta2,701.001,141,5.249515,5.249515,5.249515,106.1672,106.1672,116.303
4145,In1Pt5Si1,259.451,123,3.956087,3.956087,7.115691,90.0,90.0,90.0
4146,Cl1O4Rb1,192.979,216,5.494028,5.494028,5.494028,60.0,60.0,60.0
4147,Cl6Cs2Te1,121.03,225,7.682391,7.682391,7.682391,60.0,60.0,60.0
4148,Ge2La1Pt2,212.456,139,5.934958,5.934958,5.934958,135.9144,135.9144,64.11268
4149,Cd3La3Pd3,195.183,189,7.831517,7.831517,4.14038,90.0,90.0,120.0
4150,Er2Ge2Sn2,250.63,63,8.351187,8.351187,4.0998,90.0,90.0,150.2621
4151,Ge1Mn1Ni2,263.902,225,4.141812,4.141812,4.141812,60.0,60.0,60.0
4152,Ag1Bi1Li2,171.641,216,4.849454,4.849454,4.849454,60.0,60.0,60.0
4153,Si2Ti2Y2,433.808,129,4.056764,4.056764,7.722378,90.0,90.0,90.0
4154,Ir4P4Sr4,242.258,198,6.345983,6.345983,6.345983,90.0,90.0,90.0
4155,Au3Ho3In3,211.002,189,7.768516,7.768463,3.917892,90.0,90.0,120.0002
4156,O2Se2Th2,298.446,129,4.154083,4.154083,7.244626,90.0,90.0,90.0
4157,Ru1Sb1Ta1,304.835,216,4.377963,4.377963,4.377963,60.0,60.0,60.0
4158,Li9N1S3,680.024,221,5.516197,5.516197,5.516197,90.0,90.0,90.0
4159,O6Sr2Zr2,547.172,140,5.905143,5.905143,5.905143,120.7872,120.7872,88.64179
4160,Dy4In2Pd4,218.708,127,7.717144,7.717144,3.695354,90.0,90.0,90.0
4161,Ge4In2Tb4,234.886,127,7.4167629999999996,7.4167629999999996,4.217334,90.0,90.0,90.0
4162,Ga4O8Zn2,559.411,227,5.909704,5.909704,5.909704,60.0,60.0,60.0
4163,Ge6Ho2Ni1,328.881,38,10.86325,10.86325,4.052214,90.0,90.0,158.9124
4164,Mg5Pd10Si16,419.545,216,8.925569,8.925569,8.925569,60.0,60.0,60.0
4165,Dy1Os2Si2,344.296,139,5.625085,5.625085,5.625085,136.2343,136.2343,63.61838
4166,Au2Sc2Sn2,226.949,186,4.639881,4.6397379999999995,7.263235,90.0,90.0,120.001
4167,C1Ge1Ni3,382.512,221,3.768736,3.768736,3.768736,90.0,90.0,90.0
4168,Pt1Sn1Th1,203.794,216,4.879872,4.879872,4.879872,60.0,60.0,60.0
4169,Hf3P3Ru3,378.393,189,6.440814,6.440429,3.769738,90.0,90.0,120.002
4170,Au2K2Se4,136.645,127,7.873737,7.873737,3.741889,90.0,90.0,90.0
4171,Er3Pb3Pd3,206.457,189,7.856244,7.856244,3.797174,90.0,90.0,120.0001
4172,Ge4O24Se8,382.286,205,7.929669,7.929669,7.929669,90.0,90.0,90.0
4173,Cu2Nb6Te8,226.562,176,10.22033,10.22013,4.093406,90.0,90.0,120.0091
4174,Gd2O8P2,439.149,141,5.857242,5.857242,5.857242,105.9712,105.9712,116.724
4175,As4La2Rh4,306.305,129,4.385474,4.385474,9.847082,90.0,90.0,90.0
4176,Au3Dy3In3,212.167,189,7.77402,7.773969,3.959375,90.0,90.0,120.0002
4177,Al16Hf6Pd7,403.516,225,8.751314,8.751314,8.751314,60.0,60.0,60.0
4178,Dy4Ge4Pt4,254.684,62,4.372008,7.029411,7.596755,90.0,90.0,90.0
4179,C6Cr3W20,374.138,225,8.247911,8.247911,8.247911,60.0,60.0,60.0
4180,Ce2O8V2,376.075,141,6.255536,6.255536,6.255536,106.0076,106.0076,116.6456
4181,In4Sr2Te8,149.475,66,6.960969,6.960969,11.99369,90.0,90.0,117.4961
4182,Mg1Ni2Sn1,331.257,225,4.362067,4.362067,4.362067,60.0,60.0,60.0
4183,Mn1Pt1Sb1,217.824,216,4.459102,4.459102,4.459102,60.0,60.0,60.0
4184,Cd2In4O8,355.879,141,6.570068,6.570068,6.570068,120.1052,120.1052,89.81793
4185,K4Na4Te4,185.315,62,5.150158,8.601694,9.358913,90.0,90.0,90.0
4186,Cl6Pt1Tl2,118.472,225,7.103369,7.103369,7.103369,60.0,60.0,60.0
4187,Ga2Ho6O12,383.759,36,7.105287,7.105287,5.415599,90.0,90.0,102.8601
4188,Ag2Si2Sr1,309.084,139,6.171762,6.171762,6.171762,138.0838,138.0838,60.77473
4189,Au3In3Yb3,158.542,189,7.818224,7.818224,4.184477,90.0,90.0,120.001
4190,Au3In3La3,185.278,189,7.883386,7.883211,4.350852,90.0,90.0,120.0007
4191,Ag2Br4Cs2,116.506,63,10.48513,10.48513,5.953857,90.0,90.0,154.228
4192,Ga4Ho4Pt4,194.061,62,4.433594,6.864842,7.6220300000000005,90.0,90.0,90.0
4193,Cd2Cr4S8,329.397,227,7.3604330000000004,7.3604330000000004,7.3604330000000004,60.0,60.0,60.0
4194,F6Na1P1,274.498,225,5.606552,5.606552,5.606552,60.0,60.0,60.0
4195,Br3Ga1La3,213.998,221,6.175751,6.175751,6.175751,90.0,90.0,90.0
4196,Ba2N2Zn1,238.453,139,7.146177,7.146177,7.146177,145.7579,145.7579,49.20654
4197,Br6K2Se1,126.796,225,7.564559,7.564559,7.564559,60.0,60.0,60.0
4198,Ca2H6Ru1,525.546,225,5.077001,5.077001,5.077001,60.0,60.0,60.0
4199,Ca1Mn7O12,560.99,148,6.499991,6.499991,6.499991,109.4621,109.4621,109.4621
4200,Ba4Ca4Sn4,196.797,62,5.343082,8.91607,9.776384,90.0,90.0,90.0
4201,Hf1Pd1Sn1,266.837,216,4.502565,4.502565,4.502565,60.0,60.0,60.0
4202,Ge4Ho4Rh4,277.385,62,4.320281,6.909443,7.513522,90.0,90.0,90.0
4203,Dy4O14Sn4,465.501,227,7.487855,7.487855,7.487855,60.0,60.0,60.0
4204,Cu1Hg2Zr1,161.644,216,4.787256,4.787256,4.787256,60.0,60.0,60.0
4205,Cl4Na4O12,306.155,198,6.682816,6.682816,6.682816,90.0,90.0,90.0
4206,Ba2O14U4,283.192,141,8.030927,8.030927,8.030927,126.4558,126.4558,79.14033
4207,Al2O6Y2,610.549,194,3.487453,3.487453,11.48109,90.0,90.0,119.9981
4208,As2Cu2Sr2,313.782,194,4.304082,4.304009,8.55459,90.0,90.0,120.0006
4209,Hf1O3Sr1,495.655,221,4.141359,4.141359,4.141359,90.0,90.0,90.0
4210,Al3Rh3Th3,240.21,189,7.35125,7.351268,4.173281,90.0,90.0,119.9999
4211,Ga12Ho4Ni1,324.302,229,7.390212,7.390212,7.390212,109.4712,109.4712,109.4712
4212,Br12K4Te2,112.914,128,7.608069,7.608069,11.29353,90.0,90.0,90.0
4213,Cd2In4Se8,187.581,227,8.156927,8.156927,8.156927,60.0,60.0,60.0
4214,Al2N2Zr4,509.667,194,3.26357,3.26357,14.407070000000001,90.0,90.0,119.9993
4215,Ge2Ho1Ni2,309.566,139,5.614244,5.614244,5.614244,137.6149,137.6149,61.49328
4216,F4H2K2,348.722,140,5.338715,5.338715,5.338715,114.8477,114.8477,99.18276