,full_formula,band_gap,spacegroup.number,structure.lattice.a,structure.lattice.b,structure.lattice.c,structure.lattice.alpha,structure.lattice.beta,structure.lattice.gamma
5837,O4Ti2,2.2588,136,4.674127,4.674127,3.02523,90.0,90.0,90.0
5838,Ga4S4,1.6813,194,3.618675,3.618829,15.91762,90.0,90.0,119.9986
5839,Br2Ti1,2.5208,164,4.02621,4.026919,6.749106,90.0436,90.0,119.9942
5840,As8O20,1.3473,92,8.76459,8.76459,4.710157,90.0,90.0,90.0
5841,Cl10Mo2,0.714,2,9.849414,7.153658,6.661772,63.84782,70.17652,66.86019
5842,Ge3O6,3.1466,152,5.03675,5.036516,5.758859,89.99175,90.00888,120.0246
5843,Se4Sn4,0.6745,62,4.253055,4.589628,11.90004,90.0,90.0,90.0
5844,H8N24,4.0066,9,8.321224,8.321203,7.268769,70.62,70.61806,89.96429
5845,O4Zr2,3.8668,137,3.645714,3.645714,5.29958,90.0,90.0,90.0
5846,Mn4S8,1.2309,205,5.647371,5.647371,5.647371,90.0,90.0,90.0
5847,Nd2O3,3.6263,164,3.884178,3.884178,6.095986,89.99773,90.00227,119.9964
5848,O16Si8,5.594,206,7.433246,7.433246,7.433246,109.4712,109.4712,109.4712
5849,O24Y16,4.0551,206,9.267951,9.267951,9.267951,109.4712,109.4712,109.4712
5850,C2Ca1,1.3145,139,4.208403,4.208403,4.208403,124.9623,124.9623,81.60047
5851,O3Sc2,3.7411,164,3.442138,3.441925,5.726148,89.99693,90.0,120.0021
5852,Rb16Si16,1.1362,142,11.909510000000001,11.909510000000001,11.909510000000001,124.6891,124.6891,82.05359
5853,N4S4,3.0125,14,4.216065,4.487469,8.791855,76.03168,90.0,90.0
5854,Pb4S4,0.7612,11,4.10541,6.027335,10.03752,84.3086,90.0,90.0
5855,Cl1K1,5.0423,225,4.514632,4.514632,4.514632,60.0,60.0,60.0
5856,I1K1,3.8594,225,5.074418,5.074418,5.074418,60.0,60.0,60.0
5857,Fe2Se2,0.49050000000000005,129,4.221261,4.221261,5.668806,90.0,90.0,89.89106
5858,Cl6Pr2,3.0275,176,7.520115,7.524577,4.321593,90.0,90.0,120.1178
5859,Cl2In2,1.2742,36,6.590539,6.590539,4.465581,90.0,90.0,140.6979
5860,N16S16,2.3667,60,7.72376,9.242617,9.506488,90.0,90.0,90.0
5861,O4Ti2,2.2671,136,4.671918,4.671918,3.023609,90.0,90.0,90.0
5862,F8Pd4,1.7723,205,5.444628,5.444628,5.444628,90.0,90.0,90.0
5863,O24Si12,5.6563,12,9.896108,9.896108,7.539489,81.41241,81.41241,88.36536
5864,Ni1O1,1.7944,225,2.990135,2.990135,2.990135,60.0,60.0,60.0
5865,O10Ta4,3.1634,15,6.957894,6.957894,5.625198,78.15866,78.15866,41.54587
5866,Cl1K1,4.8604,221,3.820249,3.820249,3.820249,90.0,90.0,90.0
5867,Be1O1,6.8521,216,2.704088,2.704088,2.704088,60.0,60.0,60.0
5868,As6Si6,1.3683,12,8.876917,8.876917,10.11562,69.39065,69.39065,24.06078
5869,Pb1Te1,0.7988000000000001,225,4.636535,4.636535,4.636535,60.0,60.0,60.0
5870,K2N6,4.157,140,5.68638,5.68638,5.68638,113.8171,113.8171,101.0907
5871,Ge2Se4,1.4427,122,6.476663,6.475821,6.477618,125.8686,125.8723,80.10516
5872,I8U2,1.6306,15,8.795103,8.795103,7.766058,88.77621,88.77621,61.39099
5873,O3Pr2,3.1317,164,3.900646,3.900646,6.092572,89.99801,90.00199,119.9983
5874,In16O24,1.1191,206,8.866973,8.866973,8.866973,109.4712,109.4712,109.4712
5875,Mg1S1,2.7702,225,3.6933,3.6933,3.6933,60.0,60.0,60.0
5876,Cl8U2,2.2674,141,7.113564,7.113564,7.113564,107.3558,107.3558,113.7903
5877,S2Ti1,0.5618000000000001,164,3.486701,3.486701,6.166213,90.01084,89.98916,120.0037
5878,O1Zn1,1.6938,216,3.177724,3.177724,3.177724,60.0,60.0,60.0
5879,O6Si3,5.7223,152,4.975894,4.976042,5.472046,90.00043,90.00035,120.0003
5880,K32Si32,1.2675,218,12.69252,12.69252,12.69252,90.0,90.0,90.0
5881,Mg2Si1,0.2364,225,4.492351,4.492351,4.492351,60.0,60.0,60.0
5882,O16Si8,5.5375,15,7.241085,7.241085,7.231136,75.49567,75.49567,119.7589
5883,Mn4S8,1.2528000000000001,205,5.654209,5.654209,5.654209,90.0,90.0,90.0
5884,Eu1S1,0.7167,225,4.24521,4.24521,4.24521,60.0,60.0,60.0
5885,Pb1Se1,0.39840000000000003,225,4.386922,4.386922,4.386922,60.0,60.0,60.0
5886,O4Zr2,3.8556,137,3.643116,3.643116,5.294357,90.0,90.0,90.0
5887,Ag2I2,2.0009,186,4.6984770000000005,4.6984770000000005,7.688515,90.0,90.0,119.9942
5888,Cl4Cr2,2.1088,58,3.537432,6.08943,6.824708,90.0,90.0,90.0
5889,S1Sr1,2.4956,225,4.286771,4.286771,4.286771,60.0,60.0,60.0
5890,N4Th3,1.4415,166,9.779115000000001,9.779115000000001,9.779115000000001,23.611,23.611,23.611
5891,Se4Sn4,0.6481,62,4.267827,4.532119,11.96819,90.0,90.0,90.0
5892,Br1K1,4.3214,225,4.740591,4.740591,4.740591,60.0,60.0,60.0
5893,C2Ca1,1.309,139,4.216981,4.216981,4.216981,125.2048,125.2048,81.19903
5894,O12Sb8,3.3449,227,8.121922,8.121922,8.121922,60.0,60.0,60.0
5895,Ge1Mg2,0.1908,225,4.52591,4.52591,4.52591,60.0,60.0,60.0
5896,O8Zr4,3.4705,14,5.29072,5.216162,5.395643,80.39298,90.0,90.0
5897,Cl30Nb6,2.4339,12,13.58587,13.58587,6.356216,89.26784,89.26784,86.39357
5898,I2In2,1.2866,63,6.869038,6.869038,4.928096,90.0,90.0,139.1595
5899,H4Mg2,3.7602,136,4.48244,4.48244,2.992139,90.0,90.0,90.0
5900,Gd6O9,3.5986000000000002,12,7.364878,7.364878,8.82198,79.9319,79.9319,28.15909
5901,N1Y1,0.1468,225,3.478627,3.478627,3.478627,60.0,60.0,60.0
5902,K4O12,0.6255000000000001,140,7.2159510000000004,7.2159510000000004,7.2159510000000004,104.69,104.69,119.5261
5903,Mn1S1,0.8229000000000001,225,3.7367239999999997,3.7367239999999997,3.7367239999999997,60.0,60.0,60.0
5904,H4Sr2,1.3006,194,4.108242,4.108242,5.638401,90.0,90.0,120.0007
5905,Rb4Te2,1.3768,194,6.143677,6.143677,8.119096,90.0,90.0,119.9963
5906,Br4Hg2,2.4502,36,4.295522,4.295522,12.77204,90.0,90.0,109.1383
5907,O6Si3,5.6719,154,5.034974,5.034974,5.517537,90.0,90.0,120.0
5908,H8Mg4,2.6577,205,4.788572,4.788572,4.788572,90.0,90.0,90.0
5909,Rb2Te1,1.8915000000000002,225,6.080175,6.080175,6.080175,60.0,60.0,60.0
5910,Dy8S12,0.7331000000000001,62,3.888283,7.307691,15.19421,90.0,90.0,90.0
5911,P16Zn24,0.6929000000000001,137,7.99199,7.99199,11.287420000000001,90.0,90.0,90.0
5912,Na8Si8,1.1541000000000001,15,6.8685279999999995,6.8685279999999995,11.01297,64.96705,64.96705,56.90102
5913,O24Si12,5.7244,166,9.352726,9.352148,9.352408,94.24805,94.24572,94.24882
5914,Ga2N2,1.9149,186,3.203146,3.20299,5.219074,90.0,90.0,120.0016
5915,Rb6Te6,0.4213,189,10.10039,10.10038,6.661275,90.0,90.0,120.0001
5916,O2Pb2,1.5441,129,4.066639,4.066639,5.314817,90.0,90.0,90.0
5917,In16Te12,0.0826,58,4.509309,12.93649,15.89595,90.0,90.0,90.0
5918,S12Sn8,0.668,62,3.8565769999999997,9.317636,14.4762,90.0,90.0,90.0
5919,O32Si16,5.7008,12,11.64321,11.64321,7.735535,80.66684,80.66684,71.98883000000001
5920,Ca1I2,3.7959,164,4.54667,4.546641,7.522709,90.0,90.00342,119.9998
5921,Pb1Se1,0.4037,225,4.38948,4.38948,4.38948,60.0,60.0,60.0
5922,Cl32Si12,4.7647,219,13.10468,13.10468,13.10468,60.0,60.0,60.0
5923,Ho16O24,3.9447,206,9.1878,9.1878,9.1878,109.4712,109.4712,109.4712
5924,Cd1Te1,0.7091000000000001,216,4.667975,4.667975,4.667975,60.0,60.0,60.0
5925,Pb1Te1,0.7988000000000001,225,4.636535,4.636535,4.636535,60.0,60.0,60.0
5926,Pb1S1,0.44060000000000005,225,4.235844,4.235844,4.235844,60.0,60.0,60.0
5927,O4Ti2,2.2640000000000002,136,4.672567,4.672567,3.02344,90.0,90.0,90.0
5928,Ge4Se4,0.7668,62,3.894163,4.450376,10.97694,90.0,90.0,90.0
5929,Rb4Te2,1.3707,194,6.148138,6.148138,8.127308,90.0,90.0,119.9974
5930,B4H12,5.183,2,7.491916,6.119512,4.559251,100.6854,92.94319,90.12939
5931,I6Sb2,2.125,148,8.72205,8.72205,8.72205,52.23329,52.23329,52.23329
5932,Eu1Se1,0.8455,225,4.413959,4.413959,4.413959,60.0,60.0,60.0
5933,Mn1Se1,0.39830000000000004,225,3.915166,3.915166,3.915166,60.0,60.0,60.0
5934,Cr4O6,2.3714,167,5.455158,5.455158,5.455158,55.61061,55.61061,55.61061
5935,I8O16,1.4852,14,7.046018,8.112035,8.352565,63.12526,90.0,90.0
5936,Ag1I1,1.9769999999999999,216,4.703601,4.703601,4.703601,60.0,60.0,60.0
5937,Ge3O6,3.1411,152,5.051957,5.051883,5.784228,89.99126,90.00947,120.0301
5938,Cd1S1,1.1871,216,4.182841,4.182841,4.182841,60.0,60.0,60.0
5939,In4Se4,0.6115,187,4.071041,4.071041,17.82352,90.0,90.0,120.01
5940,H12N4,4.2302,198,5.208527,5.208527,5.208527,90.0,90.0,90.0
5941,Cd1Te1,0.7092,216,4.667934,4.667934,4.667934,60.0,60.0,60.0
5942,In2Se2,0.3373,160,8.872199,8.872199,8.872199,26.57008,26.57008,26.57008
5943,Cl1K1,5.0538,225,4.509417,4.509417,4.509417,60.0,60.0,60.0
5944,C2Si2,2.2894,186,3.090947,3.090947,5.075955,90.0,90.0,119.9963
5945,Ag4P8,0.7696000000000001,14,5.168521,6.284912,7.929641,66.46561,90.0,90.0
5946,Cl2Cu1,0.8220000000000001,12,3.9150419999999997,3.9150419999999997,6.855144,63.16027,63.16027,50.39092
5947,Cl36In28,2.2329,205,12.42072,12.42072,12.42072,90.0,90.0,90.0
5948,Fe12S12,1.1862,14,7.10903,7.170312,9.869441,79.95418,90.0,90.0
5949,Au6F18,2.066,178,5.288107,5.288107,16.60188,90.0,90.0,120.0
5950,S28Zn28,2.6934,156,3.7978769999999997,3.7978709999999998,86.92976,90.00008,90.0,120.0
5951,I32Si8,2.8119,205,12.96151,12.96151,12.96151,90.0,90.0,90.0
5952,Mg1O1,4.4694,225,3.007216,3.007216,3.007216,60.0,60.0,60.0
5953,Ir4P8,0.5182,14,5.819932,5.770681,5.877755,68.54741,90.00191,90.00006
5954,Ge1Te1,0.369,225,4.248902,4.248902,4.248902,60.0,60.0,60.0
5955,Br4Yb2,3.0544000000000002,58,4.3857,6.687707,6.991306,90.0,90.0,90.0
5956,O4Pt2,0.8428,58,3.167512,4.58473,4.569979,90.0,90.0,90.0
5957,Al4O6,4.2322,12,2.850879,7.184952,6.683486,42.93253,90.0,90.0
5958,Cu4O2,0.6532,224,4.291553,4.291553,4.291553,90.0,90.0,90.0
5959,Ce1O2,2.4184,225,3.885036,3.885036,3.885036,60.0,60.0,60.0
5960,Co4Sb12,0.15080000000000002,204,7.871426,7.871426,7.871426,109.4712,109.4712,109.4712
5961,O8Si4,5.6368,82,6.751253,6.751253,6.751253,98.1349,98.1349,135.8066
5962,O8Te4,3.0072,19,4.93534,5.035373,7.62342,90.0,90.0,90.0
5963,I16Sr8,3.7979000000000003,61,8.007351,8.335859,15.65371,90.0,90.0,90.0
5964,S8Ti4,0.3062,59,6.184399,3.492903,13.16204,90.0,90.0,90.0
5965,Fe2S4,1.7447,58,3.466692,4.489242,5.520832,90.0,90.0,90.0
5966,Cr4O6,2.3713,167,5.44746,5.44746,5.44746,55.71974,55.71974,55.71974
5967,I8Zr4,0.2706,11,3.77002,6.91358,16.2574,84.81786,90.0,90.0
5968,H8Si1,6.8148,119,4.971532,4.971532,4.971532,119.0362,119.0362,91.67769
5969,Te2Zn2,1.5112,186,4.330806,4.331158,7.120904,90.0,90.0,120.0027
5970,F3La1,5.5403,139,4.116351,4.116351,4.116351,116.0229,116.0229,97.03874
5971,F8Pb4,4.3561,62,3.945652,6.554263,7.81139,90.0,90.0,90.0
5972,Ca1O1,3.6356,225,3.422104,3.422104,3.422104,60.0,60.0,60.0
5973,H24O12,5.4569,19,8.258857,8.21838,3.970675,90.00243,89.99248,90.001
5974,Cd2S2,1.2626,186,4.18998,4.18998,6.806096,90.0,90.0,119.9948
5975,Cu2I2,1.9689,129,4.167245,4.167245,6.441955,90.0,90.0,90.0
5976,Al4O6,5.8498,167,5.181272,5.181272,5.181272,55.29024,55.29024,55.29024
5977,Pb4S4,0.3764,38,7.94305,7.94305,4.084815,90.0,90.0,91.54786
5978,N16Si12,2.3434,159,7.418133,7.418133,6.248411,90.0,90.0,120.0
5979,Ru4Te8,0.3119,205,6.47775,6.47775,6.47775,90.0,90.0,90.0
5980,O4Zr2,3.8503,137,3.646297,3.646297,5.297044,90.0,90.0,90.0
5981,Br2In2,1.2116,63,6.655525,6.655525,4.700895,90.0,90.0,139.6775
5982,Ge3O6,3.1339,152,5.083189,5.083232,5.758436,89.99913,90.00081,120.0025
5983,Cd2Se2,0.6852,186,4.371023,4.370638,7.143141,90.0,90.0,120.0029
5984,Ru4S8,1.2705,205,5.677962,5.677962,5.677962,90.0,90.0,90.0
5985,Yb1Zn1,0.8907,225,6.9984079999999995,6.9984079999999995,6.9984079999999995,60.0,60.0,60.0
5986,Cl1Na1,5.0568,225,4.005645,4.005645,4.005645,60.0,60.0,60.0
5987,Cl32Se8,3.0869,15,10.3297,10.3297,16.16048,66.99706,66.99706,61.17547
5988,O24Y16,4.0596,206,9.266253,9.266253,9.266253,109.4712,109.4712,109.4712
5989,Mg1O1,4.4693,225,3.007232,3.007232,3.007232,60.0,60.0,60.0
5990,As1Ga1,0.293,216,4.0557,4.0557,4.0557,60.0,60.0,60.0
5991,Li2O1,4.9044,225,3.288456,3.288456,3.288456,60.0,60.0,60.0
5992,As16S16,2.38,14,18.35568,7.720997,9.887261,83.62358,90.0,90.0
5993,S20Zn20,2.6801,156,3.798339,3.798289,62.06911,90.0,90.0,120.0004
5994,O6Si3,5.6365,154,5.056294,5.056258,5.532332,89.99986,90.00032,119.9999
5995,Fe12S12,1.1862,14,7.10903,7.170312,9.869441,79.95418,90.0,90.0
5996,Cr4O6,2.3702,167,5.453298,5.453298,5.453298,55.62558,55.62558,55.62558
5997,Pb1Se1,0.39840000000000003,225,4.386922,4.386922,4.386922,60.0,60.0,60.0
5998,In4Se4,0.43320000000000003,194,4.070574,4.070674,17.31729,90.0,90.0,119.9992
5999,Ir24Si40,0.9462,14,14.21249,6.435628,10.4442,83.13284,90.0,90.0
6000,O8Ti4,2.5065,14,4.959617,4.914932,5.110965,80.10365,90.0,90.0
6001,Rb4Te2,1.3841,194,6.136469,6.136087,8.149282,90.0,90.0,120.0021
6002,I10La4,0.14020000000000002,11,4.449501,9.261186,15.01377,93.13709,90.0,90.0
6003,Ca24N16,1.1076,206,9.939619,9.939619,9.939619,109.4712,109.4712,109.4712
6004,Al2N2,4.0584,186,3.128222,3.128242,5.016339,90.0,90.0,119.9998
6005,O24Si12,5.6184,36,11.33108,11.33108,5.180169,90.0,90.0,102.6887
6006,C9Si9,2.0209,160,22.85551,22.85551,22.85551,7.763705,7.763705,7.763705
6007,H8Mg4,1.9286,62,3.100753,5.271156,5.964517,90.0,90.0,90.0
6008,As2I6,2.2009,148,8.548283,8.547366,8.548207,50.90938,50.90722,50.90665
6009,I8O16,1.4897,14,7.029481,8.116536,8.362767999999999,62.95577,90.0,90.0
6010,Be2O2,7.4576,186,2.710309,2.710309,4.403622,90.0,90.0,119.9979
6011,Cd2S2,1.2604,186,4.187788,4.187435,6.81335,90.0,90.0,120.0028
6012,Ni2P4,0.6698000000000001,15,4.264708,4.264708,5.6400120000000005,68.58794,68.58794,82.30867
6013,O8Sb4,1.6758000000000002,15,6.576566,6.576566,5.592529,79.86198,79.86198,43.69538
6014,Ge2O4,1.2068,136,4.474571,4.474571,2.912256,90.0,90.0,90.0
6015,C8Rb8,3.5323,62,4.801756,9.400936,9.864798,90.0,90.0,90.0
6016,Se6U2,1.0759,11,4.125572,5.772293,9.903302,95.8265,90.0,90.0
6017,Cl30Ta6,2.9886,12,13.72061,13.72061,6.439202,89.3989,89.3989,86.1913
6018,C16Na16,3.4975,142,10.48471,10.48471,10.48471,138.3599,138.3599,60.35219
6019,Fe4Si4,0.8675,198,4.421453,4.421453,4.421453,90.0,90.0,90.0
6020,Se4Sn4,0.6615,62,4.251124,4.594848,11.94017,90.0,90.0,90.0
6021,Ge4Se4,0.7753,62,3.89695,4.460433,11.00429,90.0,90.0,90.0
6022,Ba2O2,2.7528,129,4.764108,4.764108,3.9499500000000003,90.0,90.0,90.0
6023,Ge3O6,3.1419,152,5.076313,5.076375,5.751215,89.99669,90.00335,120.0026
6024,Cl1Rb1,4.8394,225,4.735695,4.735695,4.735695,60.0,60.0,60.0
6025,Cd1Te1,0.7092,216,4.667933,4.667933,4.667933,60.0,60.0,60.0
6026,La2N2,1.448,186,4.206177,4.206177,5.925533,90.0,90.0,120.0113
6027,K12Tl12,0.0627,64,11.07204,11.07204,8.156342,90.0,90.0,91.01682
6028,Cl12Mo4,0.7435,15,5.799505,5.799505,13.36446,89.36424,89.36424,114.9769
6029,Cd1Te1,0.7091000000000001,216,4.66797,4.66797,4.66797,60.0,60.0,60.0
6030,Be1O1,6.8531,216,2.703707,2.703707,2.703707,60.0,60.0,60.0
6031,Fe8Si16,0.9728,64,6.269871,6.269871,7.806822,90.0,90.0,104.0248
6032,Be2O2,7.455,186,2.710623,2.710554,4.40305,90.0,90.0,120.0008
6033,Cl2V1,2.7999,164,6.011542,3.696504,6.403393,30.01423,89.87041,89.8906
6034,O4Zr2,3.8689999999999998,137,3.644342,3.644342,5.301027,90.0,90.0,90.0
6035,O8Si4,5.5274,92,5.066399,5.066399,7.092015,90.0,90.0,90.0
6036,I1Rb1,3.3478,221,4.486673,4.486673,4.486673,90.0,90.0,90.0
6037,C22F14,2.2174,12,6.072113,6.072113,13.72457,85.91252,85.91252,80.70392
6038,Ge20Ir16,0.060200000000000004,116,5.65476,5.65476,18.46775,90.0,90.0,90.0
6039,Cl1Cs1,5.0075,221,4.202596,4.202596,4.202596,90.0,90.0,90.0
6040,S24Zn24,2.6888,156,3.798098,3.798104,74.48514,90.0,90.0,119.9999
6041,Cl6Y2,4.8567,12,6.982497,6.982497,6.902817,79.77499,79.77499,119.6522
6042,Ca4H8,3.0227,62,3.562162,5.882378,6.7530339999999995,90.0,90.0,90.0
6043,Cl1K1,4.8498,221,3.82349,3.82349,3.82349,90.0,90.0,90.0
6044,Mg1S1,2.7726,225,3.691961,3.691961,3.691961,60.0,60.0,60.0
6045,O10V4,1.3906,15,6.481705,6.481705,5.385478,77.37037,77.37037,42.83645
6046,O4Ti2,2.2636,136,4.671999,4.671999,3.023815,90.0,90.0,90.0
6047,O16Se8,3.2069,55,5.297684,9.244675,9.175598,90.0,90.0,90.0
6048,Al4O6,5.8473,167,5.180541,5.180541,5.180541,55.30488,55.30488,55.30488
6049,Al4I12,3.2595,14,6.735111,10.17704,13.02672,71.38966,90.0,90.0
6050,H24O12,5.45,4,8.176601,3.974409,8.282709,90.01259,90.71349,89.98191
6051,Pb1Te1,0.7989,225,4.636581,4.636581,4.636581,60.0,60.0,60.0
6052,Cu3N1,0.5118,221,3.8187189999999998,3.8187189999999998,3.8187189999999998,90.0,90.0,90.0
6053,Mg1O1,4.4841,225,3.005646,3.005646,3.005646,60.0,60.0,60.0
6054,Ge1Te1,0.3568,225,4.245918,4.245918,4.245918,59.93622,59.93622,59.93622
6055,N8Si6,3.3317,227,5.506809,5.506809,5.506809,60.0,60.0,60.0
6056,O2Pd2,0.18580000000000002,131,3.105444,3.105444,5.409611,90.0,90.0,90.0
6057,Cr4S6,0.0789,148,6.721123,6.72087,6.721145,53.99091,53.99049,53.99262
6058,C11Si11,1.9888,160,27.89247,27.89247,27.89247,6.359576,6.359554,6.359554
6059,O16Si8,5.6472999999999995,121,7.737613,7.737613,7.737613,106.7406,106.7406,115.0824
6060,Br12P4,3.2774,62,6.905531,9.074639,10.85796,90.0,90.0,90.0
6061,P44Rb12,1.9336000000000002,60,11.09601,11.03588,14.50061,90.0,90.0,90.0
6062,Ba8Si16,0.7627,62,6.767474,9.028128,11.60422,90.0,90.0,90.0
6063,Cd10I20,2.4091,156,4.316892,4.316892,72.73197,90.00285,89.99715,120.0011
6064,Ag2I2,2.0017,186,4.700598,4.700156,7.683321,90.0,90.0,120.0031
6065,As4Si3,0.39990000000000003,215,5.368005,5.368005,5.368529,90.0,90.0,90.0
6066,Br40W16,0.9902000000000001,14,11.20914,9.711909,18.40892,76.74754,90.0,90.0
6067,Ni2S2,0.19970000000000002,194,3.530955,3.530955,5.643706,90.0,90.0,120.0041
6068,F4Ni2,4.0103,136,4.710012,4.710012,3.115052,90.0,90.0,90.0
6069,Er12S18,1.4632,11,3.995227,10.12355,17.52987,81.34961,90.0,90.0
6070,Pb1Te1,0.7966000000000001,225,4.63468,4.63468,4.63468,60.0,60.0,60.0
6071,Br18Cr6,1.7963,148,6.497705,6.497941,20.46331,90.00065,90.00109,120.0001
6072,C19Si19,1.9687000000000001,156,3.094006,3.094008,48.09276,89.99999,90.0,120.0
6073,Pb1S1,0.4686,225,4.247591,4.247591,4.247591,60.0,60.0,60.0
6074,O6Si3,5.7026,154,4.992863,4.992863,5.4918949999999995,90.0,90.0,120.0
6075,Se4Sn4,0.6697000000000001,62,4.264406,4.574153,11.93679,90.0,90.0,90.0
6076,Rb2Te1,1.8929,225,6.078496,6.078496,6.078496,60.0,60.0,60.0
6077,Se2Yb2,1.5685,194,5.029325,5.028732,5.902769,90.0,90.0,120.0039
6078,C8U4,0.37260000000000004,205,5.43658,5.43658,5.43658,90.0,90.0,90.0
6079,Cl6Rh2,2.1953,12,6.07567,6.07567,6.351345,80.80257,80.80257,120.036
6080,O12Sb8,3.3058,227,8.086797,8.086797,8.086797,60.0,60.0,60.0
6081,Rb8Te4,1.7202000000000002,62,5.635313,9.156671,11.10688,90.0,90.0,90.0
6082,Cd9I18,2.3763,156,4.312993,4.312963,65.30023,90.00247,90.0,120.0002
6083,Ag1I1,0.3951,221,3.855,3.855,3.855,90.0,90.0,90.0
6084,Al2H6,2.4559,167,4.673757,4.673757,4.673757,56.04231,56.04231,56.04231
6085,F6Ti2,1.9854,167,5.57297,5.57297,5.57297,60.80817,60.80817,60.80817
6086,F1Li1,8.743,225,2.884502,2.884502,2.884502,60.0,60.0,60.0
6087,Bi8O12,2.2644,14,8.312858,5.941618,7.6077,66.60429,90.0,90.0
6088,Cs8Te20,0.3231,63,9.69636,12.3565,10.33348,90.0,90.0,90.0
6089,N8Zr6,0.6969000000000001,220,5.896269,5.896269,5.896269,109.4712,109.4712,109.4712
6090,Pb1S1,0.46530000000000005,225,4.246201,4.246201,4.246201,60.0,60.0,60.0
6091,Ce1O2,2.4183,225,3.885099,3.885099,3.885099,60.0,60.0,60.0
6092,Cd2Se2,0.6891,186,4.373156,4.372766,7.136326,90.0,90.0,120.003
6093,Cl6Mo2,0.7065,12,5.800305,5.800305,6.985296,81.15354,81.15354,114.7067
6094,C8O16,6.7006,19,3.992501,6.7906759999999995,7.142484,90.0,90.0,90.0
6095,F8Mn4,2.8016,60,5.035387,5.457319,5.912134,90.0,90.0,90.0
6096,Ba1C2,1.6104,139,4.790644,4.790644,4.790644,125.2063,125.2063,81.19665
6097,Cl32In32,2.1831,198,12.51102,12.51102,12.51102,90.0,90.0,90.0
6098,S1Sr1,2.4955,225,4.286747,4.286747,4.286747,60.0,60.0,60.0
6099,Er16O24,3.9603,206,9.133798,9.133798,9.133798,109.4712,109.4712,109.4712
6100,S4Sn4,0.9492,62,4.070984,4.46715,11.65947,90.0,90.0,90.0
6101,Ag2Br2,1.5579,11,4.117781,4.130977,5.836208,90.51014,90.0,90.0
6102,Mg24N16,1.5127000000000002,206,8.681349,8.681349,8.681349,109.4712,109.4712,109.4712
6103,Cu2I2,0.0572,166,7.494721,7.494721,7.494721,34.12859,34.12859,34.12859
6104,Gd8Se12,0.1791,62,4.09016,11.09825,11.30436,90.0,90.0,90.0
6105,Cd1S1,1.1887,216,4.181894,4.181894,4.181894,60.0,60.0,60.0
6106,As2Li6,0.6375000000000001,194,4.37707,4.37707,7.813773,90.0,90.0,120.0044
6107,Ge2Se4,1.4574,122,6.469413,6.469413,6.469413,125.8049,125.8049,80.209
6108,Rb8S4,1.959,62,5.153043,8.452693,10.07269,90.0,90.0,90.0
6109,C6Si6,2.0209,186,3.094586,3.094597,15.18671,90.0,90.0,120.0001
6110,Cl1K1,4.8498,221,3.823489,3.823489,3.823489,90.0,90.0,90.0
6111,F1K1,5.9618,225,3.831939,3.831939,3.831939,60.0,60.0,60.0
6112,B2N2,4.0422,194,2.512399,2.512399,7.383064,90.0,90.0,120.0142
6113,Au4P6,0.1467,12,7.886796,7.886796,4.750097,83.42762,83.42762,135.7106