,full_formula,band_gap,spacegroup.number,structure.lattice.a,structure.lattice.b,structure.lattice.c,structure.lattice.alpha,structure.lattice.beta,structure.lattice.gamma
11675,Pt6Sb8U6,0.4585,220,8.5059,8.5059,8.5059,109.4712,109.4712,109.4712
11676,Mg2O6Ti2,3.8248,148,5.552314,5.552314,5.552314,55.15832,55.15832,55.15832
11677,O16Sb8Zn4,2.5812,135,8.541472,8.541472,6.030236,90.0,90.0,90.0
11678,Bi1F6Na1,2.8769,148,6.111506,6.111506,6.111506,53.45096,53.45096,53.45096
11679,F16Sb4Tl4,3.6022,2,8.151612,7.380811,8.7451,88.47939,89.95929,111.1626
11680,Li8O12Ti4,3.4874,15,5.15655,5.15655,9.884178,84.87042,84.87042,120.1434
11681,F8Li2Lu2,7.7314,15,6.353981,6.353981,5.109435,67.6703,67.6703,111.9457
11682,Cl4Cs4O16,5.4844,62,6.148586,8.007497,10.05237,90.0,90.0,90.0
11683,Al3O12P3,5.6453,152,5.021204,5.021512,11.10364,89.99939,89.99946,120.0005
11684,Ge2Mg2O6,3.6294,148,5.461895,5.461895,5.461895,54.6379,54.6379,54.6379
11685,Cl2In10Se10,0.9164,11,4.160855,9.365673,15.67822,86.95755,90.0,90.0
11686,H4Mg3O5,3.5684,164,3.128132,3.128132,12.42636,89.997,90.003,120.001
11687,B4Li4S10,2.4535,63,8.622635,8.622635,7.008668,90.0,90.0,134.8628
11688,Ca8O16Ru4,0.9779,61,5.805111,5.492926,11.63766,90.0,90.0,90.0
11689,Cu4Mg4P4,0.0911,62,3.842898,6.526765,7.185602,90.0,90.0,90.0
11690,Li2O2Pd1,1.9511,71,5.299729,5.299729,5.299729,146.8109,137.9732,54.5706
11691,O16Sn4Sr8,2.2419000000000002,56,5.96989,5.975357,12.46783,90.0,90.0,90.0
11692,O8Si2Zr2,4.4653,141,5.621385,5.621385,5.621385,106.7828,106.7828,114.9932
11693,Lu2O8V2,2.9295,141,5.891569,5.891569,5.891569,106.4865,106.4865,115.6214
11694,Nd8S20Th4,1.359,62,7.651577,8.322552,12.22812,90.0,90.00032,90.0
11695,C2Li8O8,6.109,31,5.085181,4.881909,5.886677,90.0,90.0,90.0
11696,Al8O20Si4,5.4024,2,7.205354,5.636088,7.935047,89.90228,106.0181,101.1453
11697,K4N12O16,2.705,14,11.23683,7.544358,7.036602,85.60797,90.0,90.0
11698,Ba1O3Ti1,2.1301,99,4.061421,4.061421,4.062671,90.0,90.0,90.0
11699,As2Cu2F14,2.1877,74,7.378943,7.378943,7.378943,122.5789,123.3787,84.91515
11700,As4Co4S4,1.0875,29,5.603554,5.597721,5.593506,90.0,90.0,90.0
11701,Ca4Cu4O8,0.2917,4,10.83346,3.350963,5.488768,84.43053,90.0,90.0
11702,I10In2Sr4,2.7741,140,10.03607,10.03607,10.03607,125.4817,125.4817,80.74162
11703,Bi4Mn4O12,0.2595,5,5.6389309999999995,5.6389309999999995,10.00633,72.13224,72.13224,60.80908
11704,O6Pb2Se2,2.8594,11,5.644004,4.594718,6.787968,72.68445,90.0,90.0
11705,O8V2Y2,2.9571,141,6.016215,6.016215,6.016215,106.2521,106.2521,116.1211
11706,Cl6Cs2Cu4,2.3113,63,7.795703,7.795703,5.578442,90.0,90.0,105.7109
11707,O12Sb4W2,1.5272000000000001,4,5.650514,5.095962,9.314819,90.00701,95.63167,89.99221
11708,Mn2Na12S8,1.9215,186,9.036253,9.036253,6.97502,90.0,90.0,120.0012
11709,Al1O3Sc1,1.8249,221,3.657858,3.657858,3.657858,90.0,90.0,90.0
11710,O20P4U4,2.4895,2,8.94866,9.750155,5.590153,69.58702,81.8783,74.04963
11711,O24Pb8Zr8,2.7871,55,5.989729,8.315773,11.95078,90.0,90.0,90.0
11712,Ag4Se4Tl4,0.653,62,4.702841,8.298452,7.827993,89.99964,90.00004,90.00005
11713,O4Sn1Sr2,2.1803,139,7.003839,7.003839,7.003839,145.299,145.299,49.88919
11714,F24P4Tl4,6.3827,205,8.065106,8.065106,8.065106,90.0,90.0,90.0
11715,Ga6In6Se18,1.373,169,7.140451,7.140451,19.16212,90.0,90.0,120.0
11716,Ga3O12P3,4.5221,152,4.980542,4.980507,11.19518,90.00196,89.99823,120.0044
11717,Pt1Tl1V1,0.6701,216,4.399079,4.399079,4.399079,60.0,60.0,60.0
11718,Ag1Cu1Sc2,0.0505,216,4.641791,4.641791,4.641791,60.0,60.0,60.0
11719,C8H16N16,4.719,14,12.62753,3.8868650000000002,9.094457,88.57264,90.0,90.0
11720,F6Ge1Rb2,5.7584,164,5.958068,5.958068,4.9190819999999995,90.00849,89.99151,120.0083
11721,Li2O4U1,3.0299,69,6.104186,6.089355,4.418261,68.93512,68.57661,42.48826
11722,Al10B2O18,4.9411000000000005,36,8.109092,8.109092,7.762642,90.0,90.0,138.6301
11723,Ge16Mg16O48,2.8315,61,5.424114,9.066882,19.08268,90.0,90.0,90.0
11724,B4Nd4O12,3.8737,2,6.429491,6.624605,6.638337,93.80479,105.4754,106.502
11725,Ba4Mn4O12,0.6679,194,5.745325,5.745326,9.426285,90.0,90.0,120.0005
11726,Co1O3Y1,1.1006,221,3.729301,3.729301,3.729301,90.0,90.0,90.0
11727,Ba1F6Ni1,1.7168,166,4.909952,4.909952,4.909952,98.82922,98.82922,98.82922
11728,Cl4H8Si5,3.7613000000000003,82,7.539327,7.539327,7.539327,103.2174,103.2174,122.8681
11729,Ce4O14Zr4,2.9834,227,7.696749,7.696749,7.696749,60.0,60.0,60.0
11730,F6Na2Th1,6.4766,150,6.140237,6.140237,3.980475,90.0,90.0,120.0
11731,Eu2O6Ti2,0.7825000000000001,140,5.614511,5.614511,5.613696,60.0048,60.0048,59.9904
11732,F14Rb6Ti2,3.5048,127,8.298598,8.298598,6.089968,90.0,90.0,90.0
11733,Ca1H2O2,4.0811,164,3.621616,3.621616,4.977636,90.00316,89.99684,120.0015
11734,Cr4La4O12,2.0686,62,5.6097,5.6110500000000005,7.918022,90.0,90.0,90.0
11735,B2H8Li2,6.7685,186,4.20259,4.20259,7.484074,90.0,90.0,119.9957
11736,In6O12Te1,1.1486,148,6.301611,6.301611,6.301611,98.70945,98.70945,98.70945
11737,Co1Ge1O3,0.5738,221,3.718843,3.718843,3.718843,90.0,90.0,90.0
11738,I20K8Pr4,2.5384,62,9.308943,9.956939,14.61069,90.0,90.0,90.0
11739,Ca2Fe9O13,0.5741,12,5.363049,5.363049,16.86828,80.01134,80.01134,33.33935
11740,Ga3O12P3,4.5161,152,5.00927,5.009222,11.24321,90.00182,89.99825,120.0089
11741,Cl3Cs1Pb1,2.1936,221,5.737331,5.737331,5.737331,90.0,90.0,90.0
11742,O18Rb12Te4,0.8625,15,8.919689,8.919689,11.23254,67.93435,67.93435,92.97465
11743,Hf1O3Pb1,2.4186,221,4.154348,4.154348,4.154348,90.0,90.0,90.0
11744,Br16Rb8Zn4,3.7661,62,7.542915,9.717251,14.94092,90.0,89.9952,90.0
11745,Cl32S8W8,2.2234,14,16.96812,9.522239,13.67885,72.26085,90.0,90.0
11746,Bi8S16Yb4,1.1332,62,4.027403,11.69571,14.55457,90.0,90.0,90.0
11747,Cd1F3Te1,0.1198,221,4.520836,4.520836,4.520836,90.0,90.0,90.0
11748,F20K8Y4,6.7979,33,6.712707,7.35371,10.98352,90.0,90.0,90.0
11749,Bi12O20Si1,2.4208,197,8.886464,8.886464,8.886464,109.4712,109.4712,109.4712
11750,Na4O6Si2,3.8904,36,6.150355,6.134661,4.861657,90.0,90.0,120.0834
11751,Cd2Cl8Na4,3.7348,55,3.979357,7.085678,12.08582,90.0,90.0,90.0
11752,Bi1F3W1,0.122,221,4.675011,4.675011,4.675011,90.0,90.0,90.0
11753,Cl8O8U4,2.6651,62,5.94717,8.524631,8.999114,90.0,90.0,90.0
11754,Ca8O16Ru4,0.985,61,5.496153,5.803965,11.62334,90.0,90.0,90.0
11755,Cs6F18Mn6,3.4815,194,6.334689,6.334689,15.37484,90.0,90.0,120.0025
11756,Ba1O3Ti1,2.137,221,4.059556,4.059902,4.059902,90.0,90.0,90.0
11757,Cu8Na4O8,0.8158000000000001,62,2.9682139999999997,6.258435,13.24587,90.0,90.0,90.0
11758,Li2Nb2O6,2.6881,167,5.511896,5.5118849999999995,5.511899,56.84527,56.84508,56.84529
11759,Mg1Pt1Y2,0.07,216,4.986931,4.986931,4.986931,60.0,60.0,60.0
11760,C2Mg2O6,4.9565,167,5.743197,5.743197,5.743197,48.1994,48.1994,48.1994
11761,O18P4Th4,4.9839,64,6.047243,6.047243,13.30512,90.0,90.0,104.3041
11762,Ca4O28V12,2.1229,62,5.367959,10.47844,10.70103,90.0,90.0,90.0
11763,Pt6Se16Ta4,0.766,55,3.613013,10.96925,15.4107,90.0,90.0,90.0
11764,K2O16V6,2.0544000000000002,11,8.566594,5.111951,7.893362,81.59603,90.0,90.0
11765,Ca7Cl2H12,3.7073,174,9.311471,9.311484,3.679377,90.0,90.0,120.0003
11766,O8Si2Zr2,4.4601,141,5.622066,5.622066,5.622066,106.7565,106.7565,115.0489
11767,Au1Co1Hf2,0.09230000000000001,216,4.583961,4.583961,4.583961,60.0,60.0,60.0
11768,F6Ir1K2,1.2357,164,5.906273,5.90645,4.767189,90.0009,90.00002,119.9999
11769,Ag1O3Ta1,2.1098,221,4.008032,4.008032,4.008032,90.0,90.0,90.0
11770,Cu2In2S4,0.40750000000000003,122,6.859947,6.859947,6.859947,132.0641,132.0641,70.12777
11771,Hf1Ir2W1,0.1048,216,4.51768,4.51768,4.51768,60.0,60.0,60.0
11772,Ba1O3Ti1,2.1373,221,4.059319,4.059319,4.059319,89.9572,89.9572,89.9572
11773,F7K1Yb2,0.44210000000000005,35,4.253657,6.520552,6.518724,63.508539999999996,90.0,90.0
11774,Ga20O48Tb12,3.3872,230,10.745470000000001,10.745470000000001,10.745470000000001,109.4712,109.4712,109.4712
11775,O16Pb4S4,3.9998,62,5.507949,7.062103,8.551501,90.0,90.0,90.0
11776,Er1S2Tl1,1.4073,166,7.884455,7.884455,7.884455,29.36472,29.36472,29.36472
11777,Mn6O12Te2,0.7803,148,6.329135,6.329135,6.329135,90.59893,90.59893,90.59893
11778,C1Li4O4,3.9824,160,4.196583,4.196583,4.196583,91.71295,91.71295,91.71295
11779,Ba2O8W2,4.6621,88,7.601568,7.601568,7.601568,135.7257,135.7257,64.40465
11780,B2H8Na2,6.3143,137,4.344685,4.344685,5.885064,90.0,90.0,90.0
11781,H8I8O24,3.0519,61,5.675069,6.289615,15.27804,90.0,90.0,90.0
11782,C2Ca2O6,4.9954,167,6.472698,6.47339,6.472269,45.75399,45.74285,45.74326
11783,Cs4O18V8,2.0328,122,16.11464,16.11464,16.11464,159.0706,159.0706,29.76808
11784,Ca2Ge1O4,2.8477,139,6.471389,6.471389,6.471389,145.9007,145.9007,48.99424
11785,Ga1Nb1Pt1,0.5636,216,4.28115,4.28115,4.28115,60.0,60.0,60.0
11786,I2Li2O6,3.65,173,5.536079,5.536296,5.297816,90.0,90.0,120.0025
11787,Ba6O22Te8,3.2332,2,9.606152,10.51016,8.155286,65.25994,77.3822,72.22799
11788,Ag6As2S6,1.4258,161,7.02254,7.02254,7.02254,102.6394,102.6394,102.6394
11789,Ca1O3Ti1,2.3669000000000002,221,3.920174,3.920174,3.920174,90.0,90.0,90.0
11790,Cl6Cs2Sn1,2.3955,225,7.642642,7.642642,7.642642,60.0,60.0,60.0
11791,Cl10K2Sn4,2.9777,140,9.185741,9.185741,9.185741,127.5231,127.5231,77.39883
11792,In1Pt1V1,0.5635,216,4.337374,4.337374,4.337374,60.0,60.0,60.0
11793,Li16N4Te2,2.3069,109,7.242407,7.242407,7.242407,120.1614,120.1614,89.72071
11794,Ca4Nb8O16,1.3227,57,5.107978,5.9026879999999995,11.98728,90.0,90.0,90.0
11795,O3Pb1Ti1,2.1795,99,3.970608,3.970608,4.185038,90.0,90.0,90.0
11796,Ba1F8Tm2,1.9746000000000001,12,6.300034,6.300034,4.27008,84.86291,84.86291,112.8469
11797,Co8Ge8Te8,0.26680000000000004,61,6.232505,6.242033,11.03928,90.0,90.0,90.0
11798,H2Mg1O2,4.2094,164,3.183628,3.183628,4.75949,90.00123,89.99877,120.0005
11799,Ge1Hf1Ni1,0.3355,216,4.112593,4.112593,4.112593,60.0,60.0,60.0
11800,Ga2Hg1S4,1.6109,82,6.545422,6.545422,6.545422,129.295,129.295,74.53634
11801,F3Na1Zn1,0.0975,221,4.026899,4.026899,4.026899,90.0,90.0,90.0
11802,Br3Cs1Pb1,1.7398,221,5.987692,5.987692,5.987692,90.0,90.0,90.0
11803,Ni2O6Ti2,2.943,148,5.506334,5.506334,5.506334,55.36744,55.36744,55.36744
11804,Mg8O16Si4,4.4126,10,6.080192,4.801702,11.52573,65.37204,90.0,90.0
11805,Al6C6Sc2,0.29350000000000004,194,3.369255,3.369205,16.91239,90.0,90.0,120.0005
11806,Ca4F12K4,6.6499,62,8.834548,6.315725,8.859145999999999,44.51223,90.0,90.0
11807,H4Na2Pt1,2.5202999999999998,139,4.982754,4.982754,4.982754,116.4553,116.4553,96.25775
11808,Au3Cr3S6,0.7298,166,3.616637,3.616637,21.50036,90.00001,89.99999,120.0
11809,H4I12O32,1.4563000000000001,14,8.720352,8.321977,12.48645,88.68842,90.0,90.0
11810,Ag2Ga2Te4,0.5277000000000001,122,7.633269,7.633269,7.633269,129.9249,129.9249,73.52678
11811,Al22Na2O34,4.5092,194,5.650527,5.65052,22.78662,90.0,90.0,120.0
11812,Rb1Se8V5,0.0585,12,9.806155,9.806155,9.224028,75.74806,75.74806,22.04916
11813,As4Ge2Zn2,0.1514,122,6.969297,6.96921,6.968773,131.3666,131.3669,71.22854
11814,Cs20Fe4O16,1.4506000000000001,14,13.15528,7.466987,11.48464,81.45504,90.0,90.0
11815,Cs8Se16W4,1.6735,62,7.620481,10.75649,13.60149,90.0,90.0,90.0
11816,Cl11Hg5Tl1,2.6664,12,9.642722,9.642722,6.653571,72.42978,72.42978,101.0517
11817,Hf1O3Sr1,3.7279999999999998,99,4.140373,4.140373,4.162401,90.0,90.0,90.0
11818,Ga2Hg1Se4,0.9463,82,6.886353,6.886353,6.886353,129.7143,129.7143,73.86396
11819,O14Sr2V6,2.0654,59,5.372959,5.535997,10.6061,90.0,90.0,90.0
11820,Al8O14Sr2,3.7317,15,8.019989,8.019989,5.596546,76.82295,76.82295,69.22524
11821,K6Mn4O16,0.0655,11,5.893151,7.9958919999999996,9.92987,68.22921,90.0,90.0
11822,Ca8Mn4O16,0.364,142,12.80606,12.80606,12.80606,156.3525,156.3525,33.68892
11823,Cr8N32Sr24,1.6777000000000002,61,9.629505,10.24762,11.33624,90.0,90.0,90.0
11824,Cr2Ti1Zn1,0.2006,216,4.211948,4.211948,4.211948,60.0,60.0,60.0
11825,C8Mn2N12,2.1637,58,6.168479,7.710047,7.285319,90.0,90.0,90.0
11826,Mg2O6Ti2,3.8241,148,5.550843,5.550843,5.550843,55.19031,55.19031,55.19031
11827,F4K2Ni1,3.8222,139,7.207546,7.207546,7.207546,147.1608,147.1608,47.1258
11828,N16Si10Sr4,3.1953,31,5.748843,6.876986,9.408325,90.0,90.0,90.0
11829,Ge2Mg2O6,2.4284,63,4.949026,4.949026,7.026293,90.0,90.0,146.5021
11830,Ba1Ni4O8,0.2038,166,7.198916,7.198916,7.198916,46.91845,46.91845,46.91845
11831,F3K1Mg1,0.2109,221,4.631916,4.631916,4.631916,90.0,90.0,90.0
11832,Bi3O12P3,4.2136,152,7.100192,7.098887,6.506654,89.99885,90.00151,120.0053
11833,Ag6As2O8,0.43060000000000004,218,6.25605,6.25605,6.25605,90.0,90.0,90.0
11834,F22La2Zr4,5.7737,72,8.610741,8.610741,8.610741,125.197,106.6749,97.85514
11835,F8Li2Mn2,1.8666,14,4.727027,5.517698,5.812047,66.74382,90.0,90.0
11836,F2I2Pb2,2.1698,129,4.232176,4.232176,9.640887,90.0,90.0,90.0
11837,K4Mo2O8,4.2091,12,7.019345,7.019345,7.641901,66.89426,66.89426,52.75931
11838,Hf1Hg1W2,0.0419,216,4.687988,4.687988,4.687988,60.0,60.0,60.0
11839,B4O12Pr4,4.3554,62,5.113291,5.852282,8.204343,90.0,90.0,90.0
11840,Ce1K1S2,2.399,166,7.772685,7.772685,7.772685,31.80501,31.80501,31.80501
11841,F12O3U3,3.5858,160,8.077501,8.077501,8.077501,114.4988,114.4988,114.4988
11842,O14Sn4Y4,2.2478,227,7.4989609999999995,7.4989609999999995,7.4989609999999995,60.0,60.0,60.0
11843,Li56N32V8,3.1486,205,9.624157,9.624157,9.624157,90.0,90.0,90.0
11844,Li1Sb1Zn1,0.6798000000000001,216,4.444657,4.444657,4.444657,60.0,60.0,60.0
11845,Ca4O14Sb4,1.7361,74,7.399747,7.399747,7.399747,119.9724,118.5498,91.28893
11846,Ag12S8Tl4,1.114,60,7.165833,8.196058,9.021117,90.0,90.0,90.0
11847,Bi4Mn8O20,0.3014,55,5.885673,7.679339,8.660907,90.0,90.0,90.0
11848,Ca4O12Si4,3.6798,62,5.103405,5.12181,7.189136,90.0,90.0,89.99993
11849,As16Hg32I24,0.6901,205,13.34989,13.34989,13.34989,90.0,90.0,90.0
11850,Ca3O8P2,5.4727,166,6.979384,6.979384,6.979384,44.70538,44.70538,44.70538
11851,As4Ho4S4,0.0629,62,16.9394,3.839112,3.8165810000000002,89.99828,90.0,90.0
11852,Ba6O18Ti6,2.1835,194,5.8200579999999995,5.8200579999999995,14.2149,90.0,90.0,120.0
11853,Mg2O8W2,3.3477,13,5.754376,4.748271,5.002793,89.14753,90.0,90.0
11854,Br1K1O3,3.8134,160,4.523585,4.523585,4.523585,84.26068,84.26068,84.26068
11855,F3Mn1Y1,0.1907,221,4.531413,4.531413,4.531413,90.0,90.0,90.0
11856,Ca8O24Si8,3.6805,140,7.1808440000000004,7.1808440000000004,7.286459,90.0,90.0,90.0
11857,Ho1Rb1S2,2.3258,166,8.014338,8.014338,8.014338,29.33357,29.33357,29.33357
11858,C1Na4O4,2.2311,146,4.845464,4.845464,4.845464,91.54572,91.54572,91.54572
11859,S14Sb8Sn2,0.7638,11,3.904721,11.22476,15.07162,76.0693,90.0,90.0
11860,Al6H28Na10,2.6021,128,6.743699,6.743699,10.29409,90.0,90.0,90.0
11861,Lu2O8P2,5.9898,141,5.6709060000000004,5.6709060000000004,5.6709060000000004,106.0413,106.0413,116.5732
11862,Fe4O12Y4,1.2674,62,5.34798,5.658645,7.732886,90.0,90.0,90.0
11863,Ga2La2O6,3.3929,167,5.53287,5.53287,5.53287,60.87123,60.87123,60.87123
11864,Cl20K8Pu4,0.0307,62,8.120762,8.718146,13.06355,90.0,90.0,90.0
11865,Ca1O3Tc1,0.1242,221,4.001726,4.001726,4.001726,90.0,90.0,90.0
11866,N16O8Si16,4.1944,164,5.492825,5.492825,13.4772,90.00025,89.99975,120.0
11867,Fe3O7P1,1.9343,160,5.246546,5.246546,5.246546,101.8324,101.8324,101.8324
11868,As1Fe2Y1,0.0656,225,4.346749,4.346749,4.346749,60.0,60.0,60.0
11869,Cs2O12Te4,0.2943,166,7.507742,7.507742,7.507742,59.29304,59.29304,59.29304
11870,Br6K2Pt1,1.1032,225,7.452654,7.452654,7.452654,60.0,60.0,60.0
11871,Ge3I6La6,0.24350000000000002,166,4.502753,4.502753,34.51768,89.99884,90.00116,119.9999
11872,Ba1O3Ti1,2.1371,221,4.059812,4.059812,4.059812,89.99987,89.99987,89.99987
11873,Na3S4Sb1,1.9199000000000002,217,6.263943,6.263943,6.263943,109.4712,109.4712,109.4712
11874,Al2O8P2,5.5019,20,5.074063,5.074063,7.103202,90.0,90.0,89.85396
11875,Ga2O12Tb6,3.6365,36,7.175909,7.175909,5.468902,90.0,90.0,102.8216
11876,Au2Cs6O2,1.5179,194,8.124043,8.124043,7.256428,90.0,90.0,120.0005
11877,Al2H2O4,5.9056,58,2.864134,4.187437,4.734327,90.0,90.0,90.0
11878,As2Bi2O8,2.7352,88,6.969832,6.969832,6.969832,136.5724,136.5724,63.09657
11879,Al2Cu2S4,2.0555,122,6.486915,6.486915,6.486915,131.1072,131.1072,71.64274
11880,Ca4S16Yb8,0.558,62,4.146434,14.16984,12.05719,90.0,90.0,90.0
11881,Cs4I6Li2,3.8253,36,13.39991,13.39991,8.863075,90.0,90.0,159.2559
11882,Na2Se1Zn1,0.3599,225,5.081744,5.081744,5.081744,60.0,60.0,60.0
11883,B4Li12N8,3.2981,141,6.995691,6.995691,6.995691,123.3864,123.3864,84.22826
11884,La4O14Ti4,3.2676,227,7.500222,7.500222,7.500222,60.0,60.0,60.0
11885,Ca8Mn4O16,0.3472,142,12.79207,12.79207,12.79207,156.3186,156.3186,33.73802
11886,Br8Hg12S8,1.4729,12,10.45715,10.45715,10.63447,67.08481,67.08481,54.10648
11887,As4B2Rb6,1.2909,15,6.933883,6.933883,9.653074,75.23592,75.23592,87.35007
11888,C12H32O8,5.1101,14,10.17725,6.058686,11.95972,71.13136,90.0,90.0
11889,Cl6Pd1Rb2,1.2176,225,7.179368,7.179368,7.179368,60.0,60.0,60.0
11890,Li40O32Tl8,1.6597,137,13.41722,13.41722,4.791085,90.0,90.0,90.0
11891,Cs8Mn4O16,0.6023000000000001,62,6.374427,8.570143999999999,11.37717,90.0,90.0,90.0
11892,Li4O5U1,3.1312,87,5.309208,5.309208,5.309208,100.3436,100.3436,129.8589
11893,O20S4Ti4,2.9758,15,7.467962,7.467962,9.650123,90.11339,90.11339,138.8976
11894,C1O4Rb4,0.4757,160,6.020691,6.020691,6.020691,76.05449,76.05449,76.05449
11895,Ca4O14Ta4,2.4623,227,7.467797,7.467797,7.467797,60.0,60.0,60.0
11896,Cd1Cr1F6,1.5635,148,5.6513089999999995,5.6513089999999995,5.6513089999999995,55.1342,55.1342,55.1342
11897,Fe4Mo8S16,0.1421,15,6.793856,6.793856,12.71736,68.79328,68.79328,57.14893
11898,Na1Nb1O3,1.8375,221,3.985724,3.985724,3.985518,90.0,90.0,90.06484
11899,Co4O16Te6,3.1527,15,6.958755,6.958755,11.74777,81.89864,81.89864,44.8003
11900,H2Mg1O2,4.2049,164,3.183247,3.183247,4.7639309999999995,90.00116,89.99884,120.0005
11901,Ca2O10V4,1.5817,59,3.624586,5.030947,11.51262,90.0,90.0,90.0
11902,Ba6S14Zr4,0.5088,66,13.40307,13.40307,7.12273,90.0,90.0,149.113
11903,H8N4Na4,1.99,70,7.121207,6.941375,5.872597,66.9213,63.73222,49.34648
11904,Cu8F24K8,1.2921,140,7.967995,8.395755,8.395838,90.00002,90.00001,90.00002
11905,N4O2Si4,4.9089,36,5.272318,5.272318,4.896172,90.0,90.0,116.4715
11906,Ca4N16Si10,3.349,9,7.746983,7.746983,9.753227,69.63716,69.63716,42.66319
11907,Bi2Se2Te1,0.7564000000000001,166,10.44967,10.44967,10.44967,23.64622,23.64622,23.64622
11908,Ge6La4O18,2.652,2,7.861119,15.82305,5.693333,89.64446,92.67317,97.40169
11909,Cr4O12W2,1.1356,136,4.655539,4.655539,9.062557,90.0,90.0,90.0
11910,F4K2Zn1,5.5639,139,7.197227,7.197227,7.197227,147.2084,147.2084,47.05535
11911,Ge4Mn8S16,1.2268,62,6.107053,7.572913,12.98503,90.0,90.0,90.0
11912,F1Na1O3,0.0927,221,4.587302,4.587302,4.587302,90.0,90.0,90.0
11913,Br12Gd2Na6,1.1078000000000001,14,7.946208,7.356177,13.29691,122.7818,90.0,90.0
11914,La2Ni1O4,0.1627,139,6.940324,6.940324,6.940324,147.1649,147.1649,47.11974
11915,Se16Sr4Y8,1.4406,62,4.157871,12.68296,15.03113,90.0,90.0,90.0
11916,Rh1Sn1Ta1,1.1012,216,4.399886,4.399886,4.399886,60.0,60.0,60.0
11917,Ag2P2Sr2,0.3619,194,4.467421,4.467267,8.269905,90.0,90.0,120.0011
11918,Sb2Se2Te1,0.4476,160,10.30469,10.30469,10.30469,23.32066,23.32066,23.32066
11919,Ag4Er4Se8,1.5615999999999999,19,4.194227,6.921586,13.75239,90.0,90.00008,90.0
11920,Ag6Rb2Te4,0.6205,12,9.265372,9.265372,9.231788,67.3468,67.3468,29.30517
11921,Mo4O16Zr2,3.0512,31,5.997739,7.438646,9.329556,90.0,90.0,90.0
11922,Dy4O14Ti4,3.2411,227,7.228327,7.228327,7.228327,60.0,60.0,60.0
11923,K12O14Ti4,3.3612,14,9.453331,6.66439,9.637345,87.91779,90.0,90.0
11924,O16Pb4W4,1.6798000000000002,64,8.172222,8.172222,5.514316,90.0,90.0,121.19
11925,Ge1Ru1Y2,0.2228,216,4.820107,4.820107,4.820107,60.0,60.0,60.0
11926,Al1La1O3,3.1268,221,3.831814,3.831814,3.831814,90.0,90.0,90.0
11927,O10S2V2,1.7565,85,6.348108,6.348108,4.130039,90.0,90.0,90.0
11928,Ge4N4O2,2.5338000000000003,36,5.5264109999999995,5.5264109999999995,5.163721,90.0,90.0,116.7016
11929,Al4Mg2O8,5.1109,227,5.777222,5.777222,5.777222,60.0,60.0,60.0
11930,O6Pb1Sb2,2.1867,162,5.384169,5.384169,5.462991,90.00036,90.00036,120.002
11931,Cr4S8Zn2,1.1663000000000001,227,7.136979,7.136979,7.136979,60.0,60.0,60.0
11932,O24Sr8Zr8,3.3247,198,8.398758,8.398758,8.398758,90.0,90.0,90.0
11933,Au2Cl6Cs2,0.9323,139,7.80347,7.80347,7.80347,121.6059,121.6059,87.24023
11934,Br12Ga4Li4,2.9853,11,10.58765,6.668607,8.110047,86.63347,90.0,90.0
11935,As5Cs3O9,3.1337,157,8.699943,8.699968,6.212647,90.00011,89.99991,120.0002