,full_formula,band_gap,spacegroup.number,structure.lattice.a,structure.lattice.b,structure.lattice.c,structure.lattice.alpha,structure.lattice.beta,structure.lattice.gamma
3342,Mn1Se1,0.3985,225,3.915535,3.915535,3.915535,60.0,60.0,60.0
3343,Ni1O2,1.5319,12,2.8044890000000002,2.8044890000000002,4.992869,74.13337,74.13337,60.00855
3344,Ge1Te1,0.33890000000000003,225,4.240615,4.240615,4.240615,60.14338,60.14338,60.14338
3345,Ni2S2,0.197,194,3.5321379999999998,3.5321379999999998,5.635584,90.0,90.0,120.0037
3346,H1K1,3.4372,225,3.993703,3.993703,3.993703,60.0,60.0,60.0
3347,Al1Sb1,1.2272,216,4.407883,4.407883,4.407883,60.0,60.0,60.0
3348,F2Pb1,4.3967,225,4.23796,4.23796,4.23796,60.0,60.0,60.0
3349,Cd12I24,2.4012000000000002,156,4.315518,4.315521,87.42352,90.00202,90.00002,120.001
3350,F4Zn2,4.9413,136,4.687263,4.687263,3.078812,90.0,90.0,90.0
3351,I6Ti2,1.861,193,7.741497,7.741497,6.928382,90.0,90.0,120.0
3352,Bi4O8,1.2208,15,6.792512,6.792512,5.682326,73.66709,73.66709,45.63413
3353,Br6W1,1.1364,148,7.307444,7.307444,7.307444,55.40682,55.40682,55.40682
3354,Mg1O1,4.4695,225,3.007214,3.007214,3.007214,60.0,60.0,60.0
3355,Ca1Se1,2.0759,225,4.217186,4.217186,4.217186,60.0,60.0,60.0
3356,I2In2,1.2388,63,6.8528,6.8528,4.85888,90.0,90.0,138.5275
3357,O24Si12,3.5724,181,6.859069,6.858942,13.5983,90.0,90.0,120.0005
3358,As1Ga1,0.2827,216,4.057575,4.057575,4.057575,60.0,60.0,60.0
3359,B12O2,1.8631000000000002,166,5.15182,5.15182,5.15182,63.11055,63.11055,63.11055
3360,N12S10,2.2781000000000002,15,7.603577,7.603577,7.843091,80.25816,80.25816,102.4918
3361,Ce8S16,0.3594,62,4.132389,8.135989,16.39727,90.0,90.0,90.0
3362,Pt1S2,1.3673,164,3.559541,3.564057,5.789384,90.09154,90.0,119.9581
3363,S2Sn1,1.3562,164,3.747809,3.747769,6.612182,89.99955,90.00001,120.0004
3364,Cr4O6,2.3714,167,5.455158,5.455158,5.455158,55.61061,55.61061,55.61061
3365,O4Si2,5.0024,136,4.233953,4.233953,2.693228,90.0,90.0,90.0
3366,Sb24Sr16,0.0853,14,13.11056,6.738975,15.34352,89.93708,90.0,90.0
3367,F6Fe2,2.7602,167,5.450333,5.450333,5.450333,56.15832,56.15832,56.15832
3368,S12Sb8,1.2826,62,3.870186,11.23575,12.15036,90.0,90.0,90.0
3369,Ni1O1,1.7921,225,2.987708,2.987708,2.987708,60.0573,60.0573,60.0573
3370,O16Si8,0.8722000000000001,54,4.720435,7.130682,9.773288,90.0,90.0,90.0
3371,F3Sc1,6.5706,221,4.123687,4.123687,4.123687,90.0,90.0,90.0
3372,Hg4N24,2.5722,29,6.400109,6.586861,10.89662,90.0,90.0,90.0
3373,O8Sn4,0.1434,205,5.257771,5.257771,5.257771,90.0,90.0,90.0
3374,Ag1I1,1.9771,216,4.703645,4.703645,4.703645,60.0,60.0,60.0
3375,O8Te4,2.7615,92,4.985692,4.985692,7.614403,90.0,90.0,90.0
3376,In8O12,0.22240000000000001,62,3.21486,5.837571,13.25801,90.0,90.0,90.0
3377,Ce1O2,2.4137,225,3.886155,3.886155,3.886155,60.0,60.0,60.0
3378,Sb2Te3,0.054700000000000006,166,10.59339,10.59339,10.59339,23.69251,23.69251,23.69251
3379,Li2O1,4.9042,225,3.28858,3.28858,3.28858,60.0,60.0,60.0
3380,Ce1O2,2.4184,225,3.885062,3.885062,3.885062,60.0,60.0,60.0
3381,Se1Zn1,1.6969,216,4.010909,4.010909,4.010909,60.0,60.0,60.0
3382,Br1K1,3.8959,221,4.035092,4.035092,4.035092,90.0,90.0,90.0
3383,Ga2N2,1.9137,186,3.205946,3.205946,5.2173169999999995,90.0,90.0,119.9967
3384,Fe2Te4,0.7078,58,3.973845,5.323898,6.395475,90.0,90.0,90.0
3385,O16Si8,5.6753,121,9.514153,9.514153,9.51385,94.1769,94.1769,148.686
3386,N6Rb2,4.1719,140,5.944761,5.944761,5.944761,114.61,114.61,99.62048
3387,Cu2I2,1.9978,129,4.172876,4.172876,6.485175,90.0,90.0,90.0
3388,N18Sb2,2.846,148,7.961015,7.961015,7.961015,55.08857,55.08857,55.08857
3389,S12Sn8,0.6513,62,3.86,9.255777,14.53125,90.0,90.0,90.0
3390,Cl4Mg2,4.2554,51,3.6565019999999997,6.616481,6.329773,90.0,90.0,90.0
3391,Be1S1,3.1433,216,3.447058,3.447058,3.447058,60.0,60.0,60.0
3392,I6U2,1.6097000000000001,63,8.00208,8.00208,10.07446,90.0,90.0,148.0823
3393,Cd2S2,1.2604,186,4.191744,4.191744,6.807482,90.0,90.0,119.9943
3394,O16Si8,5.5621,14,4.933513,8.635425,8.828536,69.05797,90.0,90.0
3395,La16O24,3.5263,206,9.9957,9.9957,9.9957,109.4712,109.4712,109.4712
3396,Cd3I6,2.4365,166,22.34664,22.34657,22.34664,11.08589,11.08582,11.08589
3397,Cr4O6,2.3742,167,5.448443,5.448443,5.448443,55.68919,55.68919,55.68919
3398,Br1K1,3.8927,221,4.036489,4.036489,4.036489,90.0,90.0,90.0
3399,As8Sr6,0.6253000000000001,43,11.77653,9.552904999999999,8.097307,83.26712,53.66704,43.06584
3400,As1Ga1,0.2943,216,4.055467,4.055467,4.055467,60.0,60.0,60.0
3401,B4N4,5.1279,70,4.253032,4.253032,4.921015,55.71002,55.71002,72.25525
3402,K8Se20,0.7496,19,6.818627,7.092065,18.27466,90.0,90.0,90.0
3403,Be6H12,5.3926,72,6.205077,6.205077,6.205077,141.3053,104.4507,88.27886
3404,Se2Ti1,0.07690000000000001,164,3.627956,3.627956,6.666842,89.99953,90.00047,120.0007
3405,I32Te8,1.7602,141,14.03105,14.03105,14.03105,101.2399,101.2399,127.6013
3406,Fe2Se2,0.5118,129,4.247491,4.247491,5.822039,90.0,90.0,90.1004
3407,C1Si1,1.3705,216,3.096536,3.096536,3.096536,60.0,60.0,60.0
3408,O8Si4,5.537,92,5.038894,5.038894,7.021194,90.0,90.0,90.0
3409,Cd3I6,2.3552,164,4.312452,4.312452,21.80681,90.00176,89.99824,120.0009
3410,Ge3O6,3.1446,152,5.087862,5.087988,5.7560009999999995,89.99467,90.0053,120.0052
3411,O8Zr4,3.473,14,5.285003,5.21683,5.397689,80.35859,90.0,90.0
3412,As8Zn8,0.5037,61,5.659909,7.316544,7.599808,90.0,90.0,90.0
3413,Ag4S2,1.3526,11,7.505033,4.824648,4.300904,125.1992,90.0,90.0
3414,Pb4S4,1.1911,11,4.053074,5.958201,10.44734,86.65419,90.0,90.0
3415,Sn4Sr8,0.2295,62,5.416491,8.458622,10.1805,90.0,90.0,90.0
3416,O24Y16,4.0564,206,9.26802,9.26802,9.26802,109.4712,109.4712,109.4712
3417,F2Pb1,4.3968,225,4.238607,4.238607,4.238607,60.0,60.0,60.0
3418,Cr4F20,1.3477999999999999,57,5.619099,7.9448360000000005,8.541692,90.0,90.0,90.0
3419,F6Fe2,2.6731,167,5.45791,5.45791,5.45791,58.04,58.04,58.04
3420,Al1N1,4.4339,225,2.876215,2.876215,2.876215,60.0,60.0,60.0
3421,S12Sb8,1.2821,62,3.870242,11.235430000000001,12.14945,90.0,90.0,90.0
3422,Cl8Hg4,2.8244,62,4.360557,6.518391,13.53237,90.0,90.0,90.0
3423,Ag6F18,1.224,178,5.205158,5.205158,15.72462,90.0,90.0,120.0
3424,Fe4S8,2.0169,205,5.521871,5.521871,5.521871,90.0,90.0,90.0
3425,Cd6I12,2.3838,156,4.311584,4.311519,43.49129,90.00411,90.0,120.0005
3426,F16Sn8,3.3455,15,7.148451,7.148451,14.3013,73.82945,73.82945,42.36766
3427,Si6W3,0.1472,180,4.629551,4.629551,6.66051,90.0,90.0,120.0
3428,S2Zn2,2.7372,186,3.7955069999999997,3.795274,6.22011,90.0,90.0,120.002
3429,O4Ti2,2.268,136,4.672436,4.672436,3.022752,90.0,90.0,90.0
3430,Cd1S1,1.1883,216,4.182122,4.182122,4.182122,60.0,60.0,60.0
3431,Mn6P24,1.054,2,16.42552,5.916951,5.14036,63.85368,84.8168,86.36812
3432,Cl1K1,4.8498,221,3.82349,3.82349,3.82349,90.0,90.0,90.0
3433,Os4Te8,0.1482,205,6.476689,6.476689,6.476689,90.0,90.0,90.0
3434,C4Sr2,2.2684,15,4.166739,4.166739,7.917662,75.50065,75.50065,63.44602
3435,Br2In2,1.111,63,6.653272,6.653272,4.635876,90.0,90.0,139.5971
3436,In16O24,1.1209,206,8.867566,8.867566,8.867566,109.4712,109.4712,109.4712
3437,Pt4Si4,1.3981,59,6.9392,8.30025,32.88768,90.0,90.0,90.0
3438,Se1Zn1,1.6997,216,4.010106,4.010106,4.010106,60.0,60.0,60.0
3439,Cl18Re6,0.8824000000000001,166,9.313266,9.313266,9.313266,68.49864,68.49864,68.49864
3440,S6Zr2,1.0938,11,3.65849,5.203672,9.645569,83.28757,90.0,90.0
3441,Br1Cu1,1.1368,216,4.052846,4.052846,4.052846,60.0,60.0,60.0
3442,O16Si8,5.5492,15,7.234885,7.234885,7.228143,75.56136,75.56136,119.8736
3443,Se1Sr1,2.2318,225,4.458741,4.458741,4.458741,60.0,60.0,60.0
3444,Fe8Se7,0.1825,99,8.526843,8.526843,6.024521,90.0,90.0,90.0
3445,O24Pr16,2.8736,206,9.764188,9.764188,9.764188,109.4712,109.4712,109.4712
3446,Fe2Te4,0.6994,58,3.973224,5.325692,6.392012,90.0,90.0,90.0
3447,Pb1Te1,0.7989,225,4.636538,4.636538,4.636538,60.0,60.0,60.0
3448,Nb4Se18,0.8348,2,8.528628,8.819042,8.856853,100.0645,96.00148,94.80408
3449,Os4Se8,0.259,205,6.020186,6.020186,6.020186,90.0,90.0,90.0
3450,Sn1Te1,0.07440000000000001,225,4.562439,4.562439,4.562439,60.0,60.0,60.0
3451,Fe2Se2,0.5319,129,4.255371,4.255371,5.477812,90.0,90.0,89.94574
3452,Ba3I6,3.0622,189,9.265306,9.26548,5.269778,90.0,90.0,119.9994
3453,P8Pt4,0.8755000000000001,205,5.740963,5.740963,5.740963,90.0,90.0,90.0
3454,Fe8Si16,0.9768,64,6.265986,6.265986,7.803401,90.0,90.0,104.0041
3455,Br1K1,3.8662,221,4.048284,4.048284,4.048284,90.0,90.0,90.0
3456,Mn1Se1,0.8287,216,4.260199,4.260199,4.260199,60.0,60.0,60.0
3457,O8V4,0.1945,12,6.471792,6.471792,6.479346,73.78117,73.78117,33.53894
3458,Rb32Si32,1.3533,218,13.18184,13.18184,13.18184,90.0,90.0,90.0
3459,N1Sc1,0.44970000000000004,225,3.242749,3.242749,3.242749,60.0,60.0,60.0
3460,Be6Cl12,6.5855,217,8.537475,8.537475,8.537475,109.4712,109.4712,109.4712
3461,O8Zr4,3.4736000000000002,14,5.288219,5.216183,5.39635,80.40177,90.0,90.0
3462,O6Si3,5.6254,152,5.062867,5.062865,5.543795,90.00005,89.99992,120.0005
3463,B1N1,4.4562,216,2.5634959999999998,2.5634959999999998,2.5634959999999998,60.0,60.0,60.0
3464,S2Sn1,1.3587,164,3.742045,3.742047,6.693986,90.00307,89.99691,120.003
3465,Cs16Se8,1.8114,43,5.564764,10.59514,20.49629,90.0,90.0,90.0
3466,F6Fe2,2.7182,167,5.468054,5.468054,5.468054,56.71713,56.71713,56.71713
3467,Cu4O2,0.6574,224,4.288847,4.288847,4.288847,90.0,90.0,90.0
3468,F4Mn2,2.5867,136,4.972658,4.972658,3.342819,90.0,90.0,90.0
3469,N16Si12,4.6548,159,7.807306,7.807306,5.6589,90.00001,90.00001,119.9999
3470,N16Si12,4.6474,159,7.808706,7.808702,5.656755,90.0,90.0,120.0
3471,S20Zn20,2.685,156,3.798469,3.798459,62.07159,89.99998,90.0,120.0001
3472,As16S16,2.1014,14,16.1468,7.10957,9.914608,73.52542,90.0,90.0
3473,Ga4Se4,1.0551,194,3.793466,3.793466,16.70385,90.0,90.0,119.9981
3474,Cl6V2,1.282,148,7.066903,7.068661,7.068333,51.75459,51.75752,51.75793
3475,Ge2O4,1.1695,136,4.478646,4.478646,2.915656,90.0,90.0,90.0
3476,Hg2I4,1.1852,137,4.525539,4.525539,13.04144,90.0,90.0,90.0
3477,Cs1I1,3.6817,221,4.662857,4.662857,4.662857,90.0,90.0,90.0
3478,Ca1F2,7.1318,225,3.897033,3.897033,3.897033,60.0,60.0,60.0
3479,F18S3,5.8542000000000005,12,8.42046,8.42046,4.99838,85.61416,85.61416,60.8286
3480,Cl1K1,4.7993,221,3.8388809999999998,3.8388809999999998,3.8388809999999998,90.0,90.0,90.0
3481,Fe2P4,0.9044000000000001,58,2.714547,4.934607,5.694124,90.0,90.0,90.0
3482,O10V4,1.4008,15,6.474463,6.474463,5.385851,77.15554,77.15554,42.83395
3483,F3Sc1,6.5706,221,4.123683,4.123683,4.123683,90.0,90.0,90.0
3484,Cl2Tl2,2.5838,63,6.73691,6.73691,4.7724779999999996,90.0,90.0,142.1586
3485,Cl8F24,2.7252,14,4.605116,8.008366,15.96606,79.65792,90.0,90.0
3486,O16Pb12,1.1161,135,8.999525,8.999525,6.777137,90.0,90.0,90.0
3487,O32Si16,0.29760000000000003,126,11.21385,11.21385,4.963763,90.0,90.0,90.0
3488,Ho6O9,4.0649,12,7.213698,7.213698,8.609368,79.96656,79.96656,27.95824
3489,Ru4Si4,0.35450000000000004,198,4.720821,4.720821,4.720821,90.0,90.0,90.0
3490,Be2O2,7.4555,186,2.71171,2.71171,4.401325,90.0,90.0,120.0062
3491,O6Si3,5.6693999999999996,154,5.033618,5.034036,5.486866,90.00432,89.99394,120.0217
3492,Os2P4,0.9201,58,2.948146,5.119043,5.943529,90.0,90.0,90.0
3493,Ga4S4,1.71,194,3.615358,3.615358,15.91717,90.0,90.0,120.0328
3494,Ge6P6,0.49910000000000004,12,7.987729,7.987729,9.348725,78.12421,78.12421,26.59176
3495,I16Zr4,2.0584,2,8.608579,8.72452,26.88312,90.54222,94.32963,88.07818
3496,S2Zr1,1.0365,164,3.691352,3.691352,6.462492,89.99531,90.00469,119.9953
3497,I2Tl2,2.1164,63,7.043485,7.043485,5.284523,90.0,90.0,140.8349
3498,Rb4Te2,1.3789,194,6.14144,6.14144,8.128536,90.0,90.0,119.9961
3499,Cl6Ti2,2.5213,148,7.422222,7.422222,7.422222,51.14121,51.14121,51.14121
3500,Be2O2,7.4649,186,2.70958,2.7094769999999997,4.403246,90.0,90.0,120.0013
3501,Ni1O1,1.7943,225,2.990107,2.990107,2.990107,60.0,60.0,60.0
3502,As1Ga1,0.29450000000000004,216,4.055425,4.055425,4.055425,60.0,60.0,60.0
3503,Eu1Se1,0.7802,225,4.3939129999999995,4.3939129999999995,4.3939129999999995,60.0,60.0,60.0
3504,In16Se12,0.1471,58,4.160385,12.48677,15.50801,90.0,90.0,90.0
3505,Au4Cl12,1.2393,14,11.80125,6.7243189999999995,6.955148,65.72708,90.0,90.0
3506,Br2Hg2,2.0608,139,6.600749,6.600749,6.600749,136.6839,136.6839,62.92474
3507,Ge6N8,1.8479999999999999,227,5.881793,5.881793,5.881793,60.0,60.0,60.0
3508,O8Sb4,1.6596000000000002,15,6.57907,6.57907,5.595015,79.96544,79.96544,43.62716
3509,Bi16O24,1.8636,206,9.723766,9.723766,9.723766,109.4712,109.4712,109.4712
3510,I2Mg1,3.6035,164,4.201322,4.201322,7.442222,90.0013,89.9987,120.0076
3511,Al1N1,4.4339,225,2.87621,2.87621,2.87621,60.0,60.0,60.0
3512,P16Zn24,0.6897,137,7.996392,7.996392,11.29566,90.0,90.0,90.0
3513,Cu1I1,1.617,216,4.328929,4.328929,4.328929,60.0,60.0,60.0
3514,Ru4S8,1.2705,205,5.677962,5.677962,5.677962,90.0,90.0,90.0
3515,Ca4H8,3.0172,62,3.556325,5.869643,6.751385,90.0,90.0,90.0
3516,Ca20Sb12,0.245,62,8.320926,9.593586,12.61853,90.0,90.0,90.0
3517,C16Na16,3.4851,142,10.55731,10.55731,10.55731,139.2454,139.2454,59.00091
3518,Ga2N2,1.9131,186,3.203697,3.203697,5.219158,90.0,90.0,120.0003
3519,As4Ru2,0.47950000000000004,58,3.000819,5.471252,6.259582,90.0,90.0,90.0
3520,F24Mo4,4.0292,62,5.276917,9.002167,10.07995,90.0,90.0,90.0
3521,Ag4O2,0.0868,224,4.879633,4.879633,4.879633,90.0,90.0,90.0
3522,Ca1S1,2.3836,225,4.043358,4.043358,4.043358,60.0,60.0,60.0
3523,F1Rb1,5.9341,221,3.449722,3.449722,3.449722,90.0,90.0,90.0
3524,C2O4,7.6056,122,4.106781,4.106781,4.106781,122.252,122.252,86.14184
3525,O16Se8,3.247,135,8.697037,8.697037,5.20613,90.0,90.0,90.0
3526,As8K8,0.6694,19,6.567697,6.786693,11.71634,90.0,90.0,90.0
3527,In4S4,0.1953,14,4.04484,11.27239,5.485338,90.0,132.3511,90.0
3528,As2I6,2.2114,148,8.667285,8.667285,8.667285,50.32799,50.32799,50.32799
3529,O2Pb2,1.6520000000000001,129,4.055392,4.055392,5.452538,90.0,90.0,90.0
3530,Mn1O1,0.1757,225,3.194311,3.194311,3.194311,60.0,60.0,60.0
3531,Se1Zn1,1.6959,216,4.011175,4.011175,4.011175,60.0,60.0,60.0
3532,As1Ga1,0.2947,216,4.055386,4.055386,4.055386,60.0,60.0,60.0
3533,I8O16,1.4787,14,7.068714,8.145635,8.346879,63.05409,90.0,90.0
3534,Cd8I16,2.3881,186,4.3139009999999995,4.313877,58.09555,90.0,90.0,120.0002
3535,Cl4O14,3.677,15,7.571854,7.571854,9.235726,69.37235,69.37235,37.75546
3536,Cl16Ga8,3.8289,52,7.202728,9.777711,9.79762,90.0,90.0,90.0
3537,N42P6,3.6121,2,7.500559,7.756334,13.72843,91.97422,101.5253,89.30567
3538,Hf4O8,4.0088,14,5.198146,5.14026,5.318266,80.34647,90.0,90.0
3539,I8O16,1.4678,14,7.013211,8.113896,8.353752,63.15323,90.0,90.0
3540,Ga2N2,1.9161000000000001,186,3.204007,3.204007,5.218536,90.0,90.0,119.9972
3541,O24Si12,5.6184,36,11.33108,11.33108,5.180168,90.0,90.0,102.6887
3542,Pb1Te1,0.8073,225,4.643516,4.643516,4.643516,60.0,60.0,60.0
3543,O32Si16,5.7008,12,11.64321,11.64321,7.735535,80.66684,80.66684,71.98883000000001
3544,Br16Ge8,2.4837,14,8.875188,7.086055,13.43104,78.33204,90.0,90.0
3545,F3Sc1,6.5706,221,4.123691,4.123691,4.123691,90.0,90.0,90.0
3546,Mo2Se4,1.109,194,3.333948,3.336112,13.80889,90.0,90.0,120.0215
3547,Br1Na1,4.1145,225,4.249687,4.249687,4.249687,60.0,60.0,60.0
3548,Os4S8,0.44670000000000004,205,5.673652,5.673652,5.673652,90.0,90.0,90.0
3549,B2I6,2.6885,176,7.413333,7.413452,8.484901,90.0,90.0,120.0008
3550,S12Sb8,1.2826,62,3.8702829999999997,11.23606,12.14896,90.0,90.0,90.0
3551,Pd4Se8,0.5339,61,5.79895,5.932598,8.314366,90.0,90.0,90.0
3552,Ga2Te5,0.8878,87,6.6931329999999996,6.6931329999999996,6.6931329999999996,105.7237,105.7237,117.2582
3553,Eu1F2,2.1001,225,4.171216,4.171216,4.171216,60.0,60.0,60.0
3554,Ca2Cl4,5.3897,58,4.1964,6.358948,6.519855,90.0,90.0,90.0
3555,As4Br12,3.1141,19,4.584338,11.25504,13.1089,90.0,90.0,90.0
3556,O6Si3,5.6958,154,4.989049,4.989059,5.509082,90.00016,90.00022,120.0003
3557,Cd10I20,2.3832,156,4.314018,4.314019,72.65364,90.00138,89.99861,120.0009
3558,K2N6,4.1615,140,5.671451,5.671451,5.671451,113.7612,113.7612,101.1951
3559,O24Sc16,4.2746,206,8.702587,8.702587,8.702587,109.4712,109.4712,109.4712
3560,O4Ti2,2.2644,136,4.672983,4.672983,3.02314,90.0,90.0,90.0
3561,S28Zn28,2.6635,156,3.798159,3.798155,86.88244,89.99988,90.0,120.0
3562,H4Mg2,3.7455,136,4.477212,4.477212,2.9955439999999998,90.0,90.0,90.0
3563,O4Ti2,2.2645,136,4.671942,4.671942,3.024698,90.0,90.0,90.0
3564,Cl1Na1,4.0312,221,3.484344,3.484344,3.484344,90.0,90.0,90.0
3565,Cl1Na1,5.0363,225,4.012918,4.012918,4.012918,60.0,60.0,60.0
3566,H16O8,0.1807,72,6.021934,6.021934,6.021934,134.5543,100.5114,96.66038
3567,K2O4,0.1169,15,5.260123,5.260123,7.633212,56.90468,56.90468,47.49833
3568,I1Na1,3.6131,225,4.592831,4.592831,4.592831,60.0,60.0,60.0
3569,O12Rh8,0.1027,62,3.040313,7.6499,9.947003,90.0,90.0,90.0
3570,Be24N16,3.316,206,7.057384,7.057384,7.057384,109.4712,109.4712,109.4712
3571,S28Zn28,2.6649000000000003,156,3.7983919999999998,3.798363,86.87608,89.99993,90.0,120.0003
3572,O8Si4,5.6433,46,7.072662,7.072662,7.072662,137.635,107.9081,87.34292
3573,I1Na1,3.6141,225,4.592222,4.592222,4.592222,60.0,60.0,60.0
3574,O4Zr2,3.8877,137,3.646772,3.646772,5.31936,90.0,90.0,90.0
3575,O4Ti2,2.2666,136,4.672099,4.672099,3.023589,90.0,90.0,90.0
3576,O6Si3,5.7134,154,4.976262,4.976828,5.474697,89.99856,89.99858,120.0003
3577,O4Si2,5.0149,136,4.232366,4.232366,2.692872,90.0,90.0,90.0
3578,F4Mg2,6.8345,136,4.694197,4.694197,3.09097,90.0,90.0,90.0
3579,Cd5I10,2.382,156,4.310976,4.31095,36.43258,90.00203,90.0,120.0002
3580,O16Si8,5.5435,15,7.237006,7.237006,7.22283,75.52452,75.52452,119.7479
3581,O16Si8,5.228,1,2.82145,11.91704,11.816,89.19328,83.39374,84.67393
3582,Ga4Se6,1.057,9,6.873255,6.873255,6.745775,80.9627,80.9627,120.8445
3583,C2Sr1,1.6312,139,4.480528,4.480528,4.480528,125.3511,125.3511,80.9573
3584,N1Y1,0.1469,225,3.478733,3.478733,3.478733,60.0,60.0,60.0
3585,O24Y16,4.0574,206,9.267496,9.267496,9.267496,109.4712,109.4712,109.4712
3586,In16Se12,0.1429,58,4.161142,12.48829,15.48183,90.0,90.0,90.0
3587,Mn4O8,0.8654000000000001,62,2.930923,4.65851,9.396049,90.0,90.0,90.0
3588,N6Rb2,4.2073,140,6.423546,5.9222339999999996,5.918095,65.71009,57.17579,57.11375
3589,In16O24,1.1118999999999999,206,8.869354,8.869354,8.869354,109.4712,109.4712,109.4712
3590,Re24Te60,0.6979000000000001,61,13.34777,13.40943,14.48755,90.0,90.0,90.0
3591,O2Zr1,3.125,225,3.641617,3.641617,3.641617,60.0,60.0,60.0
3592,O16Pb12,1.1155,55,6.77916,8.888262,9.106719,90.0,90.0,90.0
3593,F3Sc1,6.5705,221,4.123667,4.123667,4.123667,90.0,90.0,90.0
3594,Al1As1,1.5011,216,4.054029,4.054029,4.054029,60.0,60.0,60.0
3595,Mg1O1,4.4703,225,3.00712,3.00712,3.00712,60.0,60.0,60.0
3596,S4V4,0.3689,62,3.637139,6.09333,6.295253,90.0,90.0,90.0
3597,Cd2S2,1.2524,186,4.187587,4.187587,6.822688,90.0,90.0,119.9944
3598,S26Zn26,2.6562,156,3.797459,3.797412,80.69668,89.99998,90.0,120.0004
3599,Mo1S2,1.2771,160,7.078603,7.078603,7.078603,26.1139,26.1139,26.1139
3600,O8Sn4,0.3704,60,4.871623,5.395769,5.914403,90.0,90.0,90.0
3601,Ga1P1,1.6437,216,3.883849,3.883849,3.883849,60.0,60.0,60.0
3602,O16Si8,5.5575,15,7.230356,7.230356,7.211289,75.60351,75.60351,119.8733
3603,Ce1O2,2.4183,225,3.885099,3.885099,3.885099,60.0,60.0,60.0
3604,Ba2S4,1.577,15,5.265689,5.265689,9.150615,65.21541,65.21541,54.61126
3605,C48N24,3.1098,205,11.05599,11.05599,11.05599,90.0,90.0,90.0
3606,Ga1N1,1.7472,216,3.201331,3.201331,3.201331,60.0,60.0,60.0
3607,Te1Zn1,1.4743,216,4.342164,4.342164,4.342164,60.0,60.0,60.0
3608,Mo4O12,1.8318,62,3.732597,3.953084,15.00238,90.0,90.0,90.0
3609,Li6N2,1.2167,194,3.562208,3.562208,6.355197,90.0,90.0,120.0039
3610,Se4Sn4,0.6431,62,4.274039,4.553254,11.97795,90.0,90.0,90.0
3611,Dy8Se12,0.3619,62,4.02989,10.99342,11.16313,90.0,90.0,90.0
3612,S14Zn14,2.6784,186,3.798286,3.798228,43.47147,90.0,90.0,120.0005
3613,O2Sn2,0.6819000000000001,59,5.209118,3.806485,4.021261,90.0,90.0,90.0
3614,Hf8O16,4.2349,61,5.084817,5.249695,10.05542,90.0,90.0,90.00043
3615,O6Si3,5.718,154,4.97111,4.971242,5.470919,89.99963,89.99964,120.0002
3616,O24Y16,4.0593,206,9.267493,9.267493,9.267493,109.4712,109.4712,109.4712
3617,O4Ti2,2.2632,136,4.671257,4.671257,3.02393,90.0,90.0,90.0
3618,B2N2,4.4144,194,2.512265,2.512265,8.282428,90.0,90.0,119.9952
3619,O16Si8,5.5356000000000005,15,7.241469,7.241469,7.230659,75.44227,75.44227,119.654
3620,Mo3Si6,0.2872,180,4.626586,4.626586,6.619804,90.0,90.0,120.0
3621,Rb4Te2,1.3737,194,6.146782,6.146444,8.113559,90.0,90.0,120.0018