,full_formula,DebyeTemp,spacegroup.number,structure.lattice.a,structure.lattice.b,structure.lattice.c,structure.lattice.alpha,structure.lattice.beta,structure.lattice.gamma
2567,Mo4Zr2,319.172,227,5.409449,5.409449,5.409449,60.0,60.0,60.0
2568,Ba4Sb2,159.456,139,10.22328,10.22328,10.22328,150.0323,150.0323,42.89402
2569,Mo6Sn2,391.685,223,5.163966,5.163966,5.163966,90.0,90.0,90.0
2570,Cu1Tb1,221.488,221,3.497485,3.497485,3.497485,90.0,90.0,90.0
2571,Bi1Rb3,92.464,225,6.451992,6.451992,6.451992,60.0,60.0,60.0
2572,Bi6La8,171.015,220,8.603158,8.603158,8.603158,109.4712,109.4712,109.4712
2573,C1Pa1,322.603,225,3.591288,3.591288,3.591288,60.0,60.0,60.0
2574,Dy6Ni4,189.797,12,6.863828,6.863828,9.519367,75.17241,75.17241,30.71684
2575,Ru3Ti1,357.659,221,3.8942,3.8942,3.8942,90.0,90.0,90.0
2576,Cd33Th3,212.077,221,9.406496,9.406496,9.406496,90.0,90.0,90.0
2577,Os8Sc4,251.744,194,5.207369,5.207333,8.670827,90.0,90.0,120.0002
2578,Re8Sc4,292.4,194,5.329451,5.329411,8.656844,90.0,90.0,120.0002
2579,Pb1Se1,196.014,225,4.389383,4.389383,4.389383,60.0,60.0,60.0
2580,Bi2K6,132.378,194,6.237751,6.237751,11.11093,90.0,90.0,120.0029
2581,Al12Mn2,577.648,63,4.972507,4.972507,8.803158,90.0,90.0,98.92411
2582,Re1Ti2,367.083,164,4.471585,4.471585,2.87841,90.00019,89.99981,120.0002
2583,Sb1Sc1,282.395,225,4.219204,4.219204,4.219204,60.0,60.0,60.0
2584,S1Sr1,323.147,225,4.286977,4.286977,4.286977,60.0,60.0,60.0
2585,H10La4,381.703,109,6.948022,6.948022,6.948022,132.539,132.539,69.37905
2586,Br4Ca2,179.696,136,6.851123,6.851123,4.407448,90.0,90.0,90.0
2587,Ag1La1,141.906,123,3.824947,3.824947,3.9599409999999997,90.0,90.0,90.0
2588,B1N1,1887.07,216,2.563782,2.563782,2.563782,60.0,60.0,60.0
2589,As8Pa6,265.479,220,7.422091,7.422091,7.422091,109.4712,109.4712,109.4712
2590,Hf4N8,476.717,205,5.128253,5.128253,5.128253,90.0,90.0,90.0
2591,Co4N12,1035.3,204,5.431798,5.431798,5.431798,109.4712,109.4712,109.4712
2592,Ca16Hg36,117.534,215,11.13058,11.13058,11.13058,90.0,90.0,90.0
2593,Se2Zn2,266.182,186,4.003559,4.0032,6.5789100000000005,90.0,90.0,120.003
2594,K1N1,244.751,225,4.115362,4.115362,4.115362,60.0,60.0,60.0
2595,Mg1Pd3,261.817,221,3.957251,3.957251,3.957251,90.0,90.0,90.0
2596,Ga2Zr4,327.428,140,5.483404,5.483404,5.483404,104.3243,104.3243,120.3433
2597,Nb6S8,388.474,176,9.664272,9.664063,3.404642,90.0,90.0,119.999
2598,Er12Rh4,142.635,62,6.199432,7.066617,9.396722,90.0,90.0,90.0
2599,N3Os3,419.871,221,4.060219,4.060219,4.060219,90.0,90.0,90.0
2600,Ce6S8,296.45,220,7.299143,7.299143,7.299143,109.4712,109.4712,109.4712
2601,C1Pd1,335.721,225,3.129423,3.129423,3.129423,60.0,60.0,60.0
2602,Hf1Ir3,373.192,221,3.936451,3.936451,3.936451,90.0,90.0,90.0
2603,Al6Pt10,261.229,55,3.983789,5.432065,10.77583,90.0,90.0,90.0
2604,Sb1Th1,174.39,221,3.929582,3.929582,3.929582,90.0,90.0,90.0
2605,Au2Ti2,262.632,129,3.359862,3.359862,6.2357949999999995,90.0,90.0,90.0
2606,C1W1,626.642,187,2.937872,2.937906,2.863121,90.0,90.0,119.9996
2607,C2Re4,540.415,194,2.872604,2.872604,9.932319,90.0,90.0,119.9995
2608,Sr1Tl1,141.91,221,4.102553,4.102553,4.102553,90.0,90.0,90.0
2609,N4Ru2,691.87,58,2.76372,4.082502,4.952459,90.0,90.0,90.0
2610,Cd3Nb1,278.016,221,4.306166,4.306166,4.306166,90.0,90.0,90.0
2611,C2Os1,599.93,187,2.875281,2.875281,3.999073,90.0,90.0,120.0005
2612,Cs1F1,131.356,221,3.697097,3.697097,3.697097,90.0,90.0,90.0
2613,O8Sn4,454.95,60,4.871601,5.402241,5.916706,90.0,90.0,90.0
2614,Bi1La1,178.302,225,4.7124939999999995,4.7124939999999995,4.7124939999999995,60.0,60.0,60.0
2615,Cd2Dy1,206.719,191,4.9710339999999995,4.9710339999999995,3.422938,90.0,90.0,119.9988
2616,Hf2Mo4,298.366,227,5.376376,5.376376,5.376376,60.0,60.0,60.0
2617,Nb2P2,533.303,109,6.208306,6.208306,6.208306,148.6274,148.6274,44.96001
2618,Ga2Ho1,300.107,191,4.214542,4.214264,4.040672,90.0,90.0,120.0022
2619,Al1Re1,273.74,221,3.065342,3.065342,3.065342,90.0,90.0,90.0
2620,In2Sc6,338.561,194,6.523832,6.523832,5.307192,90.0,90.0,120.0
2621,Mn2Sc4Se8,239.22,227,8.003206,8.003206,8.003206,60.0,60.0,60.0
2622,Ge1Ni2Zn1,312.886,225,4.056676,4.056676,4.056676,60.0,60.0,60.0
2623,La6Ru8Sn26,223.659,223,9.967227,9.967227,9.967227,90.0,90.0,90.0
2624,Ga1Pd2Sc1,246.964,225,4.545377,4.545377,4.545377,60.0,60.0,60.0
2625,Cu4Ni1Yb1,266.504,216,4.945104,4.945104,4.945104,60.0,60.0,60.0
2626,Cr4La4S12,372.337,62,3.875131,7.906818,13.36439,90.0,90.0,90.0
2627,La8N4S6,261.398,58,4.145095,6.606062,15.92995,90.0,90.0,90.0
2628,Re4S4Te4,258.363,216,7.211719,7.211719,7.211719,60.0,60.0,60.0
2629,Cu4Sb4Se8,207.138,62,4.045979,6.455197,15.05566,90.0,90.0,90.0
2630,Ca4Ge4Ni6,344.725,51,4.039008,6.907851,9.15733,90.0,90.0,90.0
2631,Cu1Hf1Hg2,129.206,216,4.758703,4.758703,4.758703,60.0,60.0,60.0
2632,Ga4Ho2Pd2,277.634,63,5.500447,5.500447,6.633839,90.0,90.0,132.5969
2633,Cd2Er4Ge4,272.825,127,7.262441,7.262441,4.16696,90.0,90.0,90.0
2634,Bi2Er6Mn1,209.563,189,8.258295,8.258584,4.168134,90.0,90.0,119.9988
2635,As2Ba2Cu2,265.42,194,4.404275,4.404275,9.189278,90.0,90.0,120.0023
2636,Ag2Dy2Sn2,236.896,186,4.774157,4.773981,7.415945,90.0,90.0,120.0012
2637,Cr3N1Pt1,340.066,221,4.170478,4.170478,4.170478,90.0,90.0,90.0
2638,Cr2N6Sr6,327.258,176,7.8098980000000005,7.810283,5.254656,90.0,90.0,119.9995
2639,Cu2Nb8Si2,425.881,124,6.254578,6.254578,5.072241,90.0,90.0,90.0
2640,Bi2Ho6Rh1,166.906,189,8.398164,8.398164,4.080964,90.0,90.0,120.0008
2641,Co4Er4Ga4,232.827,62,4.083093,7.529328,6.5905249999999995,90.0,90.0,90.0
2642,Al2Cu2O4,586.785,194,2.877015,2.877,11.38981,90.0,90.0,120.0002
2643,Al3La1Pd2,342.664,191,5.542614,5.542614,4.241603,90.0,90.0,120.0007
2644,C1In1La3,248.043,221,5.292643,5.292643,5.292643,90.0,90.0,90.0
2645,Al4Se8Sr2,232.732,66,6.361612,6.361612,11.15922,90.0,90.0,121.075
2646,C1Er1Rh3,356.788,221,4.149326,4.149326,4.149326,90.0,90.0,90.0
2647,Ga4La4Pt4,175.693,62,4.554946,7.310214,7.939343,90.0,90.0,90.0
2648,Co8Ge26Lu6,356.609,223,8.685209,8.685209,8.685209,90.0,90.0,90.0
2649,F12Na4Zn4,423.705,62,5.399899,5.571232,7.740757,90.0,90.0,90.0
2650,Ca8H4N4,520.305,227,7.152978,7.152978,7.152978,60.0,60.0,60.0
2651,Ba1O3Pu1,331.467,221,4.410918,4.410918,4.410918,90.0,90.0,90.0
2652,Ni3P3W3,361.77,189,5.8482959999999995,5.8482959999999995,3.764362,90.0,90.0,120.0003
2653,Ir4Si4Ta4,390.817,62,3.804917,6.432107,7.307373,90.0,90.0,90.0
2654,Br1K3O1,241.795,221,5.286277,5.286277,5.286277,90.0,90.0,90.0
2655,Au4In8Na12,138.177,227,9.676714,9.676714,9.676714,60.0,60.0,60.0
2656,Ba2Be4N4,509.159,140,5.849851,5.849851,5.849851,121.9736,121.9736,86.61433
2657,Ba1Fe1O3,480.84,221,4.028356,4.028356,4.028356,90.0,90.0,90.0
2658,Cl16Hg12O4,101.729,198,9.555281,9.555281,9.555281,90.0,90.0,90.0
2659,Dy2Pd2Sb2,214.012,194,4.569523,4.569523,7.555358,90.0,90.0,119.9967
2660,Cd2Cu2F8,347.07,140,6.463329,6.463329,6.463329,130.5542,130.5542,72.52232
2661,Au2O4Sc2,300.695,194,3.314902,3.314902,12.31763,90.0,90.0,120.0012
2662,Ag1In5Te8,143.942,111,6.309357,6.309357,12.83567,90.0,90.0,90.0
2663,Mn2Si2Y1,452.987,139,6.219097,6.219097,6.219097,141.6052,141.6052,55.42402
2664,F3Na1V1,390.186,221,4.159738,4.159738,4.159738,90.0,90.0,90.0
2665,B1In1Sc3,432.205,221,4.758529,4.758529,4.758529,90.0,90.0,90.0
2666,Pt1Sb1Tb1,233.557,216,4.671458,4.671458,4.671458,60.0,60.0,60.0
2667,Fe4Si4Ta4,399.73,62,3.577336,6.367871,7.780809,90.0,90.0,90.0
2668,Hf3Rh3Sn3,252.882,189,7.437785,7.437785,3.581684,90.0,90.0,119.9993
2669,Er3Pd3Sn3,226.106,189,7.559563,7.559483,3.976864,90.0,90.0,120.0004
2670,C4Os8Zr16,349.432,227,8.847792,8.847792,8.847792,60.0,60.0,60.0
2671,Ag2In1Y1,181.56,225,4.94841,4.94841,4.94841,60.0,60.0,60.0
2672,Ge4Ir4Mn12,299.142,198,6.867389,6.867389,6.867389,90.0,90.0,90.0
2673,B2Mg16Rh8,318.878,227,8.617332,8.617332,8.617332,60.0,60.0,60.0
2674,N4Ni8Ta16,378.773,227,8.251878,8.251878,8.251878,60.0,60.0,60.0
2675,Ga4Ir4Y4,209.269,62,4.322932,6.821579,7.740731,90.0,90.0,90.0
2676,Al36Mg6Mn4,380.257,227,10.42095,10.42095,10.42095,60.0,60.0,60.0
2677,In1P1Pt5,246.173,123,3.9704319999999997,3.9704319999999997,7.040095,90.0,90.0,90.0
2678,Co4Sn4Tb4,268.238,62,4.656906,7.49146,7.841073,90.0,90.0,90.0
2679,Na1O3W1,537.119,221,3.92847,3.92847,3.92847,90.0,90.0,90.0
2680,C2Cu1Rb1,248.633,123,4.486562,4.486562,4.967598,90.0,90.0,90.0
2681,Li2Pd1Sb1,248.106,216,4.510892,4.510892,4.510892,60.0,60.0,60.0
2682,Ge4Pt4Y4,282.206,62,4.3796,7.043241,7.608184,90.0,90.0,90.0
2683,Ru4Si4Ti4,498.426,62,4.007053,6.219329,7.152467,90.0,90.0,90.0
2684,F14Sr4Zn3,350.205,157,6.858306,6.859087,7.129286,90.00561,89.9972,120.0038
2685,B2Ge6Ta10,371.593,193,7.775219,7.775219,5.411195,90.0,90.0,120.0009
2686,Al1Ba1Si1,338.133,187,4.319056,4.319056,5.184956,90.0,90.0,119.9928
2687,Cu4In1Tb1,299.596,216,5.137411,5.137411,5.137411,60.0,60.0,60.0
2688,Gd2O8V2,401.228,141,6.077379,6.077379,6.077379,106.1231,106.1231,116.3976
2689,B4Mo4Nb2,631.345,127,6.144697,6.144697,3.206417,90.0,90.0,90.0
2690,Au2Ge2Tb2,237.6,186,4.481097,4.481097,7.368228,90.0,90.0,119.9976
2691,Al1Cr1Cu2,335.542,225,4.287202,4.287202,4.287202,60.0,60.0,60.0
2692,Li2Ru2Sn8,278.289,140,7.472259,7.472259,7.472259,126.2185,126.2185,79.52934
2693,Dy2Tl2Zn2,236.267,194,4.687114,4.687072,7.303625,90.0,90.0,120.0003
2694,As2Hg2K2,168.242,194,4.6184,4.6184,10.19218,90.0,90.0,119.9993
2695,O3Rb1U1,391.535,221,4.403755,4.403755,4.403755,90.0,90.0,90.0
2696,Mn4Te8Zn2,122.934,227,8.285411,8.285411,8.285411,60.0,60.0,60.0
2697,Ge4La2Rh2,275.042,63,8.920006,8.920006,4.393591,90.0,90.0,151.2251
2698,Cl4K2Pd1,177.39,123,7.167564,7.167564,4.181478,90.0,90.0,90.0
2699,Ce4In2Pt4,212.141,127,7.824867,7.824867,3.752334,90.0,90.0,90.0
2700,Ba1Ge3Pt1,254.107,107,6.12293,6.12293,6.12293,135.6648,135.6648,64.49904
2701,Cd4Dy16Rh4,197.67,216,9.593193,9.593193,9.593193,60.0,60.0,60.0
2702,Ba1O3Ti1,589.577,221,4.059691,4.059691,4.059691,90.0,90.0,90.0
2703,Br6K2Re1,120.979,225,7.543386,7.543386,7.543386,60.0,60.0,60.0
2704,Dy2In2Zn2,262.629,194,4.681343,4.681343,7.180027,90.0,90.0,119.9957
2705,Co1Nb1Sb1,333.542,216,4.22193,4.22193,4.22193,60.0,60.0,60.0
2706,Ir1Mn1Sb1,228.317,216,4.388617,4.388617,4.388617,60.0,60.0,60.0
2707,Ga3Hf3Rh3,275.839,189,7.151172,7.151172,3.411659,90.0,90.0,120.0001
2708,As1Cd1Pt5,235.192,123,3.990658,3.990658,7.269428,90.0,90.0,90.0
2709,Ge4N8Si2,887.214,227,5.754766,5.754766,5.754766,60.0,60.0,60.0
2710,C1Ni3Zn1,351.132,221,3.72641,3.72641,3.72641,90.0,90.0,90.0
2711,Al4Ni2Y2,418.916,63,5.535467,5.535467,6.860326,90.0,90.0,137.3506
2712,Ba1O4S1,289.361,216,5.222547,5.222547,5.222547,60.0,60.0,60.0
2713,Ca6Ge26Ir8,304.608,223,9.068805,9.068805,9.068805,90.0,90.0,90.0
2714,Pd4Sn4Y4,243.708,62,4.668488,7.255155,8.022781,90.0,90.0,90.0
2715,Ir4Nb4Si4,439.184,62,3.8000220000000002,6.454262,7.2992609999999996,90.0,90.0,90.0
2716,Na6O9S2,395.199,225,6.890563,6.890563,6.890563,60.0,60.0,60.0
2717,Ir1Si3Y1,364.754,107,5.709023,5.709023,5.709023,136.9869,136.9869,62.45825
2718,Al2Pd5U1,273.615,139,8.084509,8.084509,8.084509,149.8442,149.8442,43.17011
2719,C4Cr2Sc2,703.63,194,3.443837,3.44388,8.972011,90.0,90.0,119.9996
2720,Au2Er2Sn2,214.605,186,4.714329,4.714139,7.428193,90.0,90.0,120.0013
2721,O4S4Zr4,419.55,198,5.769821,5.769821,5.769821,90.0,90.0,90.0
2722,Pt4Si4Th2,301.903,129,4.326319,4.326319,9.82594,90.0,90.0,90.0
2723,C1Ho1Rh3,355.643,221,4.154555,4.154555,4.154555,90.0,90.0,90.0
2724,In3Pt3Th3,209.363,189,7.693177,7.693177,4.25051,90.0,90.0,119.9999
2725,C2Sn2Ti4,478.731,194,3.238205,3.238205,13.94871,90.0,90.0,119.9996
2726,Ir8Sn26Yb6,180.125,223,9.908365,9.908365,9.908365,90.0,90.0,90.0
2727,Au8In8Sr4,145.198,62,4.673687,8.682787,12.45157,90.0,90.0,90.0
2728,Nb4Pd4Si4,411.681,62,3.771383,6.503773,7.500199,90.0,90.0,90.0
2729,Ni2Sn1Ti1,325.251,225,4.350357,4.350357,4.350357,60.0,60.0,60.0
2730,Co4Dy4Ge4,312.022,62,4.331603,7.149168,7.436619,90.0,90.0,90.0
2731,Ir1Si3U1,308.367,107,5.757211,5.757211,5.757211,136.9651,136.9651,62.49173
2732,As2Au2Ca2,223.893,194,4.460691,4.460691,7.964647,90.0,90.0,119.996
2733,B2Co2Y1,578.797,139,5.29315,5.29315,5.29315,140.8613,140.8613,56.5479
2734,Co2Ga1Mn1,363.968,225,4.320327,4.320327,4.320327,60.0,60.0,60.0
2735,Br6Ca2In2,134.429,63,7.506447,7.506447,10.94405,90.0,90.0,146.6786
2736,Er4Ga4Pd4,189.79,62,4.447387,6.863111,7.6296289999999996,90.0,90.0,90.0
2737,Bi10La6Sc2,176.425,193,9.919164,9.919164,6.642037,90.0,90.0,120.0122
2738,Ba1O3Sn1,464.393,221,4.24195,4.24195,4.24195,90.0,90.0,90.0
2739,Mn4Ni4Si4,348.054,216,5.614511,5.614511,5.614511,90.0,90.0,90.0
2740,Nb3Re3Si3,440.962,189,6.881042,6.881042,3.337404,90.0,90.0,119.9998
2741,O8Si2Zn4,609.407,227,5.725596,5.725596,5.725596,60.0,60.0,60.0
2742,Ni4P4S4,456.191,198,5.631331,5.631331,5.631331,90.0,90.0,90.0
2743,Fe1Ga1Ni2,318.592,225,4.074692,4.074692,4.074692,60.0,60.0,60.0
2744,Au1In1Li2,196.593,216,4.619869,4.619869,4.619869,60.0,60.0,60.0
2745,Ca4Ge4Mg4,395.708,62,4.454789,7.522451,8.407088,90.0,90.0,90.0
2746,Au4Ca4In4,172.721,62,4.637059,7.418945,8.580376,90.0,90.0,90.0
2747,Na2Nb2O6,685.264,127,5.550485,5.550485,3.994688,90.0,90.0,90.0
2748,B12H12Tl2,173.62,202,7.6773489999999995,7.6773489999999995,7.6773489999999995,60.0,60.0,60.0
2749,Ge4Hf4Pt4,296.021,62,3.980044,6.6443829999999995,7.702525,90.0,90.0,90.0
2750,Pd2Sc1Sn1,255.932,225,4.692019,4.692019,4.692019,60.0,60.0,60.0
2751,Mg1Ni2Sb1,330.565,225,4.334745,4.334745,4.334745,60.0,60.0,60.0
2752,Cs1F3Pb1,195.619,221,4.901979,4.901979,4.901979,90.0,90.0,90.0
2753,Cu2Zn1Zr1,298.641,225,4.39642,4.39642,4.39642,60.0,60.0,60.0
2754,O12Rh4Tb4,413.757,62,5.319134,5.791728,7.708267,90.0,90.0,90.0
2755,C1Ru3Th1,405.438,221,4.282318,4.282318,4.282318,90.0,90.0,90.0
2756,Cu2Er2Si2,355.375,194,4.144806,4.144729,7.32863,90.0,90.0,120.0006
2757,Br2In10Se10,170.492,31,4.155189,9.455812,15.59294,90.0,90.0,90.0
2758,In4Ir4Tb16,169.954,216,9.68071,9.68071,9.68071,60.0,60.0,60.0
2759,As2Ba1Ru2,273.918,139,6.789611,6.789611,6.789611,143.8478,143.8478,52.05496
2760,Au1Pb1Y1,187.598,216,4.8299959999999995,4.8299959999999995,4.8299959999999995,60.0,60.0,60.0
2761,Ag2Ge1Li1,219.179,225,4.573601,4.573601,4.573601,60.0,60.0,60.0
2762,Hf4P4V4,453.413,62,3.49299,6.592212,7.893288,90.0,90.0,90.0
2763,Cl6K2Re1,152.96,225,7.152515,7.152515,7.152515,60.0,60.0,60.0
2764,Br4K2Pd1,131.914,123,7.521132,7.521132,4.391014,90.0,90.0,90.0
2765,Co4Ge4Mn4,480.929,62,3.784085,5.56991,6.85587,90.0,90.0,90.0
2766,Ag2Bi2K4,134.219,20,6.854793,6.854793,6.4393519999999995,90.0,90.0,102.6711
2767,Cu2Dy1In1,252.705,225,4.692525,4.692525,4.692525,60.0,60.0,60.0
2768,Al1Li2Pt1,309.84,216,4.266212,4.266212,4.266212,60.0,60.0,60.0
2769,C2In2Nb4,456.747,194,3.197066,3.197066,14.55201,90.0,90.0,120.0
2770,C4Co2Sc2,676.753,129,3.374178,3.374178,7.146478,90.0,90.0,90.0
2771,In1Ni2Sc1,354.998,225,4.43634,4.43634,4.43634,60.0,60.0,60.0
2772,Ba1O3Pb1,356.454,221,4.357968,4.357968,4.357968,90.0,90.0,90.0
2773,In1Pt4Tb1,228.984,216,5.371212,5.371212,5.371212,60.0,60.0,60.0
2774,Ag2O4Sc2,324.156,194,3.284266,3.284332,12.629760000000001,90.0,90.0,119.9993
2775,O1Pb1Yb3,228.831,221,4.889967,4.889967,4.889967,90.0,90.0,90.0
2776,Cd1Cl8Na6,256.109,225,8.020996,8.020996,8.020996,60.0,60.0,60.0
2777,Ge4Rh4Ta4,351.994,62,3.862644,6.485244,7.490323,90.0,90.0,90.0
2778,Rh3Sn3Th3,245.755,189,7.736356,7.736325,4.14693,90.0,90.0,120.0001
2779,La1Rh2Si2,402.13,139,5.944839,5.944839,5.944839,139.3165,139.3165,58.89256
2780,Ho3In3Pd3,199.248,189,7.663005,7.662911,3.836983,90.0,90.0,120.0004
2781,La1Rh1Si3,384.48,107,5.798374,5.798374,5.798374,136.5379,136.5379,63.14985
2782,Pd2Si2Yb1,266.385,139,5.749384,5.749384,5.749384,136.639,136.639,62.99389
2783,Bi8Cu8Mn6,203.635,225,8.688,8.688,8.688,60.0,60.0,60.0
2784,Pt4Sc2Si2,311.156,63,5.336706,5.336706,7.009925,90.0,90.0,139.519
2785,Pd4Sb4Sr2,170.034,129,4.700139,4.700139,10.75801,90.0,90.0,90.0
2786,Na2Nb2S4,431.277,194,3.429023,3.429023,14.28438,90.0,90.0,119.9992
2787,Ni2Sn1Zr1,315.982,225,4.463011,4.463011,4.463011,60.0,60.0,60.0
2788,Fe4Hf4P4,388.982,62,3.587824,6.39549,7.910144,90.0,90.0,90.0
2789,Au1C2K1,218.434,123,4.346168,4.346168,5.240109,90.0,90.0,90.0
2790,C1Rh3Y1,383.906,221,4.166795,4.166795,4.166795,90.0,90.0,90.0
2791,C4Mo16Ni8,497.829,227,8.007235,8.007235,8.007235,60.0,60.0,60.0
2792,Fe4P4Zr4,475.258,62,3.631184,6.451047,8.007353,90.0,90.0,90.0
2793,Ge2P4Zn2,411.268,122,6.653139,6.653139,6.653139,131.3044,131.3044,71.32995
2794,Dy1Ru2Si2,395.461,139,5.584355,5.584355,5.584355,136.0169,136.0169,63.9542
2795,B2Ce1Ir3,378.229,191,5.5575600000000005,5.557939,3.038904,90.0,90.0,119.9977
2796,Ag1Au1Zn2,195.766,225,4.463959,4.463959,4.463959,60.0,60.0,60.0
2797,Ba1P2Rh2,325.213,139,6.909991,6.909991,6.909991,146.7517,146.7517,47.7316
2798,P2Sn6Zr10,362.784,193,8.660241,8.660241,5.997257,90.0,90.0,120.0
2799,Ba1Pt1Sn3,181.946,107,6.686309,6.686309,6.686309,135.9609,135.9609,64.04074
2800,Bi4Rb12Se12,114.467,198,10.36206,10.36206,10.36206,90.0,90.0,90.0
2801,Dy2Ga2Zn2,318.768,194,4.394351,4.394351,7.256387,90.0,90.0,120.0002
2802,P2Ru2Y1,479.059,139,5.575728,5.575728,5.575728,137.4428,137.4428,61.7575
2803,Ho4O14Sn4,466.293,227,7.46914,7.46914,7.46914,60.0,60.0,60.0
2804,Fe2Ga1V1,596.997,225,4.047002,4.047002,4.047002,60.0,60.0,60.0
2805,C2Ga2Ta4,393.603,194,3.138293,3.138303,13.73036,90.0,90.0,119.9999
2806,Al1Li2Pd1,330.922,216,4.303493,4.303493,4.303493,60.0,60.0,60.0
2807,C1Mn3Sn1,355.264,221,4.388638,4.388638,4.388638,90.0,90.0,90.0
2808,Mg4O8Sn2,525.527,227,6.178424,6.178424,6.178424,60.0,60.0,60.0
2809,Au1C2Li1,258.117,187,3.888583,3.888748,5.238298,90.0,90.0,119.9986
2810,Ag2Bi2Yb2,156.93,186,4.927493,4.927334,7.875605,90.0,90.0,120.0011
2811,B16C8Sc8,1006.17,135,6.672649,6.672649,6.943235,90.0,90.0,90.0
2812,Fe4Nb4P4,605.11,62,3.603012,6.141653,6.898198,90.0,90.0,90.0
2813,Co2Ga1Ti1,403.069,225,4.300573,4.300573,4.300573,60.0,60.0,60.0
2814,Bi4O14Sn4,386.678,227,7.668364,7.668364,7.668364,60.0,60.0,60.0
2815,Ni1Sb1Tb1,295.186,216,4.487898,4.487898,4.487898,60.0,60.0,60.0
2816,B2F10Li4,487.761,141,7.112687,7.112687,7.112687,136.3095,136.3095,63.502250000000004
2817,Cr4O12Te2,646.487,136,4.623424,4.623424,9.209768,90.0,90.0,90.0
2818,La10O3Si8,336.601,191,11.01791,11.01791,4.741302,90.0,90.0,119.9987
2819,Ca4O12Rh4,523.085,62,5.372752,5.685548,7.69341,90.0,90.0,90.0
2820,Au1Er1Ni4,330.35,216,4.897057,4.897057,4.897057,60.0,60.0,60.0
2821,Ba4P4Pt4,219.735,198,6.598607,6.598607,6.598607,90.0,90.0,90.0
2822,As4Nb4Ni4,393.713,62,3.70756,6.354417,7.297744,90.0,90.0,90.0
2823,Dy3In3Ir3,199.128,189,7.449071,7.448964,3.963427,90.0,90.0,120.0005
2824,O24Se8Sn4,280.618,205,8.42775,8.42775,8.42775,90.0,90.0,90.0
2825,Ga2O12Y6,466.407,36,7.161598,7.161598,5.454645,90.0,90.0,102.8357
2826,Cu3Te4V1,179.407,215,5.963471,5.963471,5.963471,90.0,90.0,90.0
2827,Ba1Pd1Sn3,182.896,107,6.743692,6.743692,6.743692,136.414,136.414,63.34089
2828,Au1C2Rb1,192.964,123,4.578882,4.578882,5.241241,90.0,90.0,90.0
2829,Be2N4Si2,1185.93,122,4.996427,4.996427,4.996427,131.8824,131.8824,70.41481
2830,C8U4W4,424.125,62,3.356786,5.830444,11.09526,90.0,90.0,90.0
2831,Cd2Ge2Sr1,145.539,139,6.787488,6.787488,6.787488,140.8857,140.8857,56.51094
2832,Br9Rb3Sb2,111.205,164,8.017509,8.016501,9.819094,89.98877,90.0,120.0042
2833,Ge2Ho2Sn2,250.736,63,8.426652,8.426652,4.09667,90.0,90.0,150.4028
2834,Au1Dy1Pb1,175.797,216,4.8213539999999995,4.8213539999999995,4.8213539999999995,60.0,60.0,60.0
2835,As4O12Sr2,477.948,193,4.9492519999999995,4.9492519999999995,11.01498,90.0,90.0,120.0001
2836,Ca3Cd3Sn3,224.645,189,7.751946,7.751855,4.7163129999999995,90.0,90.0,120.0004
2837,Au24Ge8Na8,156.129,205,9.19943,9.19943,9.19943,90.0,90.0,90.0
2838,Ho1Ru2Si2,392.17,139,5.573715,5.573715,5.573715,135.935,135.935,64.0809
2839,O8Si2Zr2,676.632,141,5.618676,5.618676,5.618676,106.7969,106.7969,114.96340000000001
2840,Ba1Mg2Si2,393.645,139,6.440206,6.440206,6.440206,137.5983,137.5983,61.51882
2841,Cd1Cu4Er1,294.253,216,5.081266,5.081266,5.081266,60.0,60.0,60.0
2842,As4K12Se12,155.172,198,9.893008,9.893008,9.893008,90.0,90.0,90.0
2843,C2In2Zr4,432.845,194,3.371373,3.371373,15.12328,90.0,90.0,119.9999
2844,Ru1Sb1Zr1,276.156,216,4.477145,4.477145,4.477145,60.0,60.0,60.0