,full_formula,band_gap,spacegroup.number,structure.lattice.a,structure.lattice.b,structure.lattice.c,structure.lattice.alpha,structure.lattice.beta,structure.lattice.gamma
10111,Al4Ba4F20,7.2876,19,5.064955,5.701443,13.93167,90.0,90.0,90.0
10112,Na12Si4Te12,1.8874,14,8.832886,12.8785,8.929828,90.0,60.40961,90.0
10113,Ca8Ge4S16,2.498,62,6.352535,8.262006,13.81137,90.0,90.0,90.0
10114,Cu4S8Tb4,1.4414,14,7.031926,6.434278,6.743637,82.06213,89.9987,89.99766
10115,O38Ta12U4,2.6235,63,6.327642,6.327642,20.3417,90.0,90.0,117.27
10116,Ag2Hg1I4,1.506,82,7.958465,7.958465,7.958465,131.8508,131.8508,70.46485
10117,I2Se4Tl10,0.6757000000000001,140,9.355232,9.355232,9.355232,123.9115,123.9115,83.34888
10118,Mn8Na8O12,0.30970000000000003,96,6.483523,6.483523,9.620756,90.0,90.0,90.0
10119,O12Sb4Tl4,2.4381,163,5.406523,5.407015,15.40215,89.99422,90.00264,120.0037
10120,O18Re4V2,1.9251,36,8.032286,8.032286,9.056393,90.0,90.0,137.6825
10121,Cu2In2Te4,0.2452,122,7.729815,7.729815,7.729815,132.0234,132.0234,70.19205
10122,O4S1Sr1,3.9262,216,5.10146,5.10146,5.10146,60.0,60.0,60.0
10123,Cl16Na8Zn4,4.8813,62,6.444634,8.149017,13.84215,90.0,90.0,90.0
10124,Be12O24Si6,5.8228,148,7.768847,7.768669,7.769051,108.0151,108.0179,108.0122
10125,Br10Cs2Sn4,2.4361,140,10.13329,10.13329,10.13329,129.5148,129.5148,74.18367
10126,Au1O1Rb3,0.27440000000000003,221,5.6230139999999995,5.6230139999999995,5.6230139999999995,90.0,90.0,90.0
10127,Hg9O18S3,0.6097,144,7.165359,7.165359,10.68736,90.0,90.0,120.0
10128,B16W4Y4,0.26990000000000003,55,3.641309,6.05054,11.69343,90.0,90.0,90.0
10129,Cl4Na4O12,5.6328,198,6.663506,6.663506,6.663506,90.0,90.0,90.0
10130,O3Rh1Y1,0.6965,221,3.945177,3.945177,3.945177,90.0,90.0,90.0
10131,Co4Na12O8,1.3027,136,9.441526,9.441526,4.650197,90.0,90.0,90.0
10132,Ca1Cs1F3,6.8926,221,4.584235,4.584235,4.584235,90.0,90.0,90.0
10133,Au8Br44Cs12,1.0883,14,16.85651,7.767053,19.30973,85.48598,90.0,90.0
10134,Ca4Mn4O12,0.38730000000000003,62,5.41448,5.334231,7.569155,90.0,90.0,90.0
10135,Ca1Ge1S2,0.4141,225,4.846857,4.846857,4.846857,60.0,60.0,60.0
10136,F8O20S8,5.583,114,7.817172,7.817172,9.741575,90.0,90.0,90.0
10137,Ca6O18Si6,4.8384,2,8.018333,7.390141,7.147328,90.0532,95.41938,103.4407
10138,Au4Cl12Cs4,0.9314,139,7.615475,7.615475,11.2733,90.0,90.0,90.0
10139,Bi2Fe2O6,1.6661000000000001,161,5.734269,5.734269,5.734269,58.90227,58.90227,58.90227
10140,Fe4O16Sb8,1.1855,135,8.66967,8.66967,6.151212,90.0,90.0,90.0
10141,Cr4La4O12,2.0643,62,5.617052,5.612746,7.918225,90.0,90.0,90.0
10142,Al8O36Y16,4.3634,14,10.51846,7.414848,11.2555,71.64816,90.0,90.0
10143,F6K2Mn2,2.7495000000000003,140,6.015965,6.015965,6.031298,119.9202,119.9159,90.00012
10144,As4Cd2Ge2,0.034300000000000004,122,7.157716,7.157716,7.157716,129.8484,129.8484,73.64928
10145,Cs4Fe4I16,1.2187000000000001,14,19.02395,7.545004,8.647053,72.25927,90.0,90.0
10146,H10Rb6Zn2,3.2704,140,8.060602,8.060602,8.060602,121.5596,121.5596,87.31927
10147,Cr4Mn2O8,2.3446,227,6.087201,6.087201,6.087201,60.0,60.0,60.0
10148,Hg8Se12Si2,0.1381,9,7.610951,7.610951,13.13484,72.77583,72.77583,59.96456
10149,Al24O38Sr2,4.455,194,5.624955,5.624951,22.15143,90.0,90.0,120.0
10150,O10P2Ta2,3.7387,85,6.533118,6.533118,4.004804,90.0,90.0,90.0
10151,P12Pt8Sr2,0.32630000000000003,15,5.789419,5.789419,11.52339,89.55646,89.55646,87.9132
10152,Er8O4S8,2.6411,14,6.844065,6.824633,8.219927,80.56632,90.0,90.0
10153,Cu3Se4V1,1.059,215,5.665243,5.665243,5.665243,90.0,90.0,90.0
10154,F8Na4Pd2,2.6221,14,5.687794,3.4824,10.19397,85.69232,90.0,90.0
10155,Br12Nb4O4,2.0312,113,12.46122,12.46122,3.902366,90.0,90.0,90.0
10156,Ag8Nb8O24,2.1335,57,5.613924,5.668324,15.818,90.0,90.0,90.0
10157,Pd1Sb1Sc1,0.0713,216,4.535598,4.535598,4.535598,60.0,60.0,60.0
10158,Dy2O8P2,5.9109,141,5.7770600000000005,5.7770600000000005,5.7770600000000005,105.9702,105.9702,116.7261
10159,Cl6K2Pt1,1.9828999999999999,225,7.076636,7.076636,7.076636,60.0,60.0,60.0
10160,O12P4Pd2,0.5815,53,4.858453,4.450951,10.29567,90.0,90.0,90.0
10161,Bi4Ga8O18,2.9162,55,5.981418,8.015357,8.412883,90.0,90.0,90.0
10162,Bi8Mo4O24,0.4413,61,5.418214,5.402,16.98375,90.0,90.0,90.0
10163,Bi1Fe1O3,1.3437999999999999,99,3.7659000000000002,3.7659000000000002,4.902392,90.0,90.0,90.0
10164,Ca8O16Si4,4.2617,14,6.078226,5.600232,12.16644,84.67371,90.0,90.0
10165,Ba6O18Ti6,2.1838,194,5.819103,5.819103,14.21118,90.0,90.0,120.0
10166,Bi8O24Si6,3.9242,220,9.039566,9.039566,9.039566,109.4712,109.4712,109.4712
10167,Pb8S16Si4,2.2069,14,6.882393,6.746256,16.11156,84.66586,90.04181,90.01845
10168,O3Rb1V1,0.23440000000000003,221,3.913678,3.913678,3.913678,90.0,90.0,90.0
10169,Ge2Li16O12,3.4344,185,5.565527,5.5655149999999995,10.84919,90.0,90.0,120.0001
10170,Ba3O15Ti6,2.1721,12,8.87625,8.87625,9.656177,77.33882,77.33882,25.81293
10171,Li2N2Zr1,1.5751,164,3.301834,3.301847,5.492889,89.99856,90.0,119.9999
10172,Si1V2Zr1,0.091,216,4.434571,4.434571,4.434571,60.0,60.0,60.0
10173,O8V2Y2,2.8076,88,6.715529,6.715529,6.715529,135.4194,135.4194,64.87918
10174,La2Ni1O4,0.188,139,6.942468,6.942468,6.942468,147.143,147.143,47.15209
10175,Ag1F3Ni1,2.0248,221,4.008611,4.008611,4.008611,90.0,90.0,90.0
10176,Mg2O6Ti2,3.8272,148,5.551241,5.551241,5.551241,55.16658,55.16658,55.16658
10177,Ag1O2Sc1,2.4375,166,6.5868459999999995,6.5868459999999995,6.5868459999999995,28.88089,28.88089,28.88089
10178,Hg2Se4Sn1,0.15660000000000002,82,7.294382,7.294382,7.294382,131.8828,131.8828,70.4142
10179,F18Mg6Rb6,6.6758,194,5.93488,5.934733,14.4456,90.0,90.0,120.0008
10180,Cu2In2O4,0.4514,194,3.331018,3.331018,11.65777,90.0,90.0,120.0032
10181,Fe4La4O12,1.0886,62,5.692053,5.628724,7.980329,90.0,90.0,90.0
10182,Gd1In1O3,1.5258,221,4.117162,4.117162,4.117162,90.0,90.0,90.0
10183,O3Sr1Ti1,2.2897,221,3.97291,3.97291,3.97291,90.0,90.0,90.0
10184,Nb4O20P4,2.4729,62,5.410144,6.782928,11.43939,90.0,90.0,90.0
10185,Cl4Cu4Se8,1.0328,14,4.927154,7.783122,11.11312,75.99936,90.0,90.0
10186,H8Li4N4,3.0188,82,6.280588,6.280588,6.280588,132.1255,132.1255,70.03084
10187,Cl12Gd6N2,3.4704,2,7.173527,8.259972,9.952936,75.96111,71.09846,65.57255
10188,Cr4O16U4,2.2316,60,4.960716,5.153527,12.00649,90.0,90.0,90.0
10189,F6Ni1Rh1,1.3412,148,5.423234,5.423234,5.423234,56.32771,56.32771,56.32771
10190,Au2Cl6Cs2,0.9051,139,7.787031,7.787031,7.787031,121.5393,121.5393,87.35395
10191,Ga20Gd12O48,3.2514,230,10.80883,10.80883,10.80883,109.4712,109.4712,109.4712
10192,Nd4O14Ru4,0.5163,227,7.432169,7.432169,7.432169,60.0,60.0,60.0
10193,Na24O16Pb4,1.4833,217,9.744129,9.744129,9.744129,109.4712,109.4712,109.4712
10194,B2Cu2Se4,1.6692,122,6.145684,6.145684,6.145684,128.1803,128.1803,76.33305
10195,Ba6P12Si8,0.4035,11,7.372215,7.594251,11.63701,80.62151,90.00301,89.99998
10196,Nb1Ru1Sb1,0.5953,216,4.375214,4.375214,4.375214,60.0,60.0,60.0
10197,Ca2O8W2,4.0948,88,6.878481,6.878481,6.878481,134.4904,134.4904,66.3231
10198,Ga3O12P3,4.5228,152,4.989694,4.989694,11.21451,90.0,90.0,120.0
10199,Cu12N12Sr12,0.5407000000000001,62,5.411063,9.061605,13.26209,90.0,90.0,90.0
10200,Nb4O14Sr4,2.7492,36,13.73045,13.73045,5.793865,90.0,90.0,163.3279
10201,Mo8Na8O28,3.0783,64,7.06259,7.06259,15.04467,89.99492,90.00508,117.8464
10202,Ag1Li1Te1,0.6349,216,4.650174,4.650174,4.650174,60.0,60.0,60.0
10203,Hf1Sn1V2,0.10360000000000001,216,4.622243,4.622243,4.622243,60.0,60.0,60.0
10204,Mg8O24Si8,4.6088000000000005,60,5.380559,8.855182,9.360582,90.0,90.0,90.0
10205,Al8O20Si4,5.446,2,7.202599,7.933336,5.634447,89.89938,101.1306,106.0102
10206,Ag1F3Mg1,3.4314,221,3.975808,3.975808,3.975808,90.0,90.0,90.0
10207,Cd6O20Se6,3.1788,4,5.484504,8.645425,10.87415,71.70768,90.0,90.0
10208,N2Sr1Zr1,0.234,166,6.257469,6.257469,6.257469,31.49913,31.49913,31.49913
10209,Cu1Li2O2,0.9057000000000001,71,5.269351,5.269351,5.269351,148.0795,138.6722,53.14968
10210,Pb1Ru1Y2,0.121,216,5.016687,5.016687,5.016687,60.0,60.0,60.0
10211,La8Mo4O24,2.7462,142,16.77972,16.77972,16.77972,159.7323,159.7323,28.81641
10212,O16Sr4U4,3.1109,57,5.548578,8.125507,8.269418,90.0,90.0,90.0
10213,I20K8U4,2.5618,62,9.333989,9.996305,14.67831,90.0,90.0,90.0
10214,Cd1Pt1Sc2,0.455,216,4.731915,4.731915,4.731915,60.0,60.0,60.0
10215,Fe2S10Th4,1.579,15,8.314262,8.314262,7.394484,84.24352,84.24352,46.77895
10216,Cr1Li1S2,1.1564,164,3.532611,3.532617,6.036442,90.002,90.0,119.9999
10217,Cl4O2Pd4,1.4743,141,6.828919,6.828919,6.828919,123.5411,123.5411,83.96884
10218,Ca8Mn4O16,0.3487,142,12.79967,12.79967,12.79967,156.3286,156.3286,33.72358
10219,O7Sc2Si2,4.6466,12,5.454413,5.454413,4.739462,82.44021,82.44021,105.3741
10220,Cr4Se8Zn2,0.392,227,7.538909,7.538909,7.538909,60.0,60.0,60.0
10221,C1K4O4,1.9512,160,5.474127,5.474127,5.474127,84.3931,84.3931,84.3931
10222,Al16K16O32,4.0026,61,5.492385,11.04069,15.63706,90.0,90.0,90.0
10223,Cu4S14U6,0.8773000000000001,173,9.84938,9.849382,5.7641539999999996,90.0,90.0,120.0007
10224,Ba1O3Ti1,2.1372,221,4.059517,4.059517,4.059746,90.0,90.0,90.0
10225,Nb4O16Zn6,3.5821,15,5.196554,5.84593,10.00803,73.01855,90.33896,90.0
10226,Cl4Na4O12,5.756,198,7.255316,7.255316,7.255316,90.0,90.0,90.0
10227,Li4Mn2O6,1.8033000000000001,12,5.002045,5.002045,5.091809,80.38569,80.38569,119.9128
10228,Al4O10Si2,5.4565,63,4.976434,4.976434,9.175695,90.0,90.0,138.0342
10229,Cr1Na1O2,2.8562000000000003,166,5.639654,5.639654,5.639654,31.28586,31.28586,31.28586
10230,Cr4Mg2O8,2.7641,227,6.001507,6.001507,6.001507,60.0,60.0,60.0
10231,Ag1Ba1F3,1.4226,221,5.070482,5.070482,5.070482,90.0,90.0,90.0
10232,O16Rb8Ru4,1.289,62,6.397031,8.245485,11.27067,90.0,90.0,90.0
10233,Al8O20Si4,5.4462,2,7.202571,7.933183,5.634406,89.89917,101.1327,106.0101
10234,O28P8Zr4,4.4717,205,8.551047,8.551047,8.551047,90.0,90.0,90.0
10235,As1F6K1,4.8275,148,5.025689,5.025689,5.025689,97.68206,97.68206,97.68206
10236,Cl10K2Sn4,2.9814,140,9.213702,9.213702,9.213702,127.6047,127.6047,77.26633
10237,As4Ca4Cd2,0.9227000000000001,36,8.55756,8.55756,7.179758,89.99993,90.00007,150.6025
10238,As1Li1Zn1,0.9409000000000001,216,4.197452,4.197452,4.197452,60.0,60.0,60.0
10239,Ni4O8Si2,2.9464,227,5.74012,5.74012,5.74012,60.0,60.0,60.0
10240,Cl4K2Pd1,2.1827,123,7.163056,7.163056,4.177351,90.0,90.0,90.0
10241,Br10K2Sn4,2.3456,140,9.565279,9.565332,9.56633,127.3659,127.3657,77.65936
10242,I12Pt1Tb7,0.09570000000000001,148,9.79404,9.79404,9.79404,107.4624,107.4624,107.4624
10243,O3Sr1Ti1,2.29,221,3.972711,3.972711,3.972711,90.0,90.0,90.0
10244,Al2H8Na2,4.6722,88,6.5834209999999995,6.5834209999999995,6.5834209999999995,135.5778,135.5778,64.63368
10245,Ag2O6Ta2,2.5753,161,5.649896,5.649896,5.649896,59.3877,59.3877,59.3877
10246,Ba1O3Ti1,2.1365,221,4.059868,4.059868,4.06028,90.0,90.0,90.0
10247,Ba2Br1N1,1.1368,166,8.341515,8.341515,8.341515,29.0807,29.0807,29.0807
10248,Al20Er12O48,4.7595,230,10.43217,10.43217,10.43217,109.4712,109.4712,109.4712
10249,Co2O12Sb4,0.7894,136,4.727623,4.727623,9.425354,90.0,90.0,90.0
10250,H8O12Si8,6.3704,148,7.52449,7.52449,7.52449,78.04356,78.04356,78.04356
10251,Cl16Ga4K4,4.6,14,11.82363,7.623832,10.15803,88.51967,90.0,90.0
10252,Er4O22Te8,3.2271,15,6.721934,6.721934,16.32281,76.13873,76.13873,44.99684
10253,Ba6Ir6O18,0.058800000000000005,15,5.816315,5.816315,14.57437,88.48234,88.48234,119.6918
10254,Al8Cl32Se16,1.3937,55,9.357328,14.10783,14.14205,90.0,90.0,90.0
10255,C1Na4O4,3.1399,121,5.5959959999999995,5.5959959999999995,5.5959959999999995,128.6823,128.6823,75.52226
10256,F6Li1P1,7.5216,148,5.174736,5.174736,5.174736,57.96545,57.96545,57.96545
10257,Cs4N24Pd2,1.9195000000000002,14,7.339327,7.230857,11.41787,75.32963,90.0,90.0
10258,Br2Cr2S2,0.6358,59,3.592389,4.842365,8.264529,90.0,90.0,90.0
10259,O8Tb2V2,2.9619999999999997,70,7.240104,6.061149,5.997215,73.79808,53.50557,52.69635
10260,Ce4O12V4,0.8117000000000001,11,9.956408,5.325529,6.518467,107.3363,130.9105,78.75583
10261,Ga4Mg2O8,3.2901,227,5.954991,5.954991,5.954991,60.0,60.0,60.0
10262,Ba4Cr16S28,0.1836,14,23.2215,6.09341,6.892395,89.99821,90.0,90.0
10263,K4Mo6Se36,0.922,4,12.91516,10.7163,10.86135,63.22866,90.0,90.0
10264,Ca1Na10Sn12,0.6638000000000001,217,9.814522,9.814522,9.814522,109.4712,109.4712,109.4712
10265,Ga2Hg1Se4,0.9526,82,6.878781,6.878781,6.878781,129.5889,129.5889,74.06482
10266,La4O14Sn4,2.0855,227,7.758048,7.758048,7.758048,60.0,60.0,60.0
10267,O4Rb2Sb2,2.2291,15,6.162659,6.162659,5.683415,68.54623,68.54623,97.22181
10268,F2H1Na1,6.8345,166,5.027001,5.027001,5.027001,41.03522,41.03522,41.03522
10269,B6O13Zn4,4.0399,217,6.464448,6.464448,6.464448,109.4712,109.4712,109.4712
10270,K2Ni1O2,2.3312,139,7.073828,7.073828,7.073828,147.4631,147.4631,46.67858
10271,Hg2I12Tl8,1.1342,128,9.537874,9.537874,9.496883,90.0,90.0,90.0
10272,Ru1Sc2Si1,0.12430000000000001,216,4.506061,4.506061,4.506061,60.0,60.0,60.0
10273,Ag4Cs8I12,2.9587,62,5.08155,14.90283,15.55557,90.0,90.0,90.0
10274,Be6F24Li12,7.5756,148,8.372638,8.372638,8.372638,107.8066,107.8066,107.8066
10275,Al2La2O6,3.6818,15,5.41897,5.41897,5.418611,60.20442,60.20442,60.18043
10276,H16N16S48,2.9614000000000003,61,8.69605,13.33233,15.01918,90.0,90.0,90.0
10277,C2O10U2,3.7879,59,4.382161,4.915717,9.703237,90.0,90.0,90.0
10278,B12H20N2,5.6543,202,7.778662,7.778662,7.778662,60.0,60.0,60.0
10279,O26Te12Zn2,2.9949,148,8.765538,8.765001,8.765508,71.9565,71.95685,71.96025
10280,K4N28P16,3.7477,62,4.706475,12.36248,9.945464,89.9994,89.99995,90.00052
10281,Re4S4Te4,0.15080000000000002,216,7.212693,7.212693,7.212693,60.0,60.0,60.0
10282,Br16Rb8Zn4,3.7704,33,7.612246,7.240247,20.46141,90.0,90.0,90.0
10283,Ca1O3Ti1,2.366,221,3.920241,3.920241,3.920241,90.0,90.0,90.0
10284,F24Fe8Rb4,0.9570000000000001,62,7.145441,7.586046,10.34851,90.0,90.0,90.0
10285,F28Ho8K4,6.9188,12,8.269982,8.269982,12.02347,59.75505,59.75505,58.32693
10286,Cd1Hf1Mo2,0.11570000000000001,216,4.673787,4.673787,4.673787,60.0,60.0,60.0
10287,Mg8O18Ta4,4.3353,165,5.219723,5.21966,14.2139,90.00004,90.0,120.0004
10288,Hg1Mg1Ti1,0.0753,216,4.574536,4.574536,4.574536,60.0,60.0,60.0
10289,Ag2F8K2,2.1454,140,7.264629,7.264629,7.264629,131.2236,131.2236,71.458
10290,H4Mg6O8,3.7768,164,3.072457,3.072457,19.77107,90.00009,89.99991,120.0022
10291,F10K4Sb2,4.6773,63,7.737008,7.737008,6.639391,90.0,90.0,131.3033
10292,O3Pb1Ti1,2.1803,221,3.997904,3.997904,3.997904,90.0,90.0,90.0
10293,Bi18I6Rh4,0.4577,11,13.8189,8.087843,9.176313,69.64633,90.0,90.0
10294,Ca2O22Ta8,3.7956000000000003,182,6.29709,6.297108,12.43205,90.0,90.0,119.9999
10295,Ba2Br1H3,2.1333,164,4.467278,4.467278,7.702412,90.00072,89.99928,119.998
10296,Al8O36Y16,4.3179,14,10.564820000000001,7.436174,11.25278,71.50025,90.0,90.0
10297,Cl8Gd4S2,2.1759,15,9.361598,9.361598,7.52003,104.1416,104.1416,41.29364
10298,I4O4Sc4,2.3862,12,10.33593,10.33593,7.357256,86.63882,86.63882,21.95906
10299,Cd6O10Si2,1.1058,129,6.907642,6.907642,5.067811,90.0,90.0,90.0
10300,As2Ca1Zn2,0.7229,164,4.166036,4.166036,6.985902,89.99863,90.00137,119.9986
10301,Ba8O28V8,3.4675000000000002,2,13.747440000000001,7.47386,7.492296,89.84166,99.01338,92.35846
10302,As2Sn2Sr1,0.0641,166,9.553665,9.553665,9.553665,26.0539,26.0539,26.0539
10303,La4O12Yb4,0.6135,62,5.843681,6.038836,8.440963,90.0,90.0,89.99764
10304,Nb1O3Tl1,0.3058,221,4.090267,4.090267,4.090267,90.0,90.0,90.0
10305,As4O14Ti2,2.8334,15,5.382645,5.382645,9.631083,80.9724,80.9724,98.44312
10306,O3Rh1Sc1,0.5837,221,3.908912,3.908912,3.908912,90.0,90.0,90.0
10307,Br20K8U4,2.7768,62,8.643516,9.326184,13.69875,90.0,90.0,90.0
10308,Au4Cs4Se12,1.0566,15,13.87937,6.684362,7.786718,68.57127,90.0,90.0
10309,Bi1S2Tl1,0.503,166,7.846243,7.846243,7.846243,30.74688,30.74688,30.74688
10310,H12I4Si4,4.1125,14,8.614756,4.681397,10.50794,78.24069,90.0,90.0
10311,F3K1Pt1,0.6354000000000001,221,4.455718,4.455718,4.455718,90.0,90.0,90.0
10312,B2O6V2,1.4328,167,5.633597,5.633597,5.633597,49.08852,49.08852,49.08852
10313,Cr2F6K2,1.78,140,5.9771719999999995,5.9771719999999995,5.9771719999999995,118.0917,118.0917,93.33828
10314,Li8O12Ti4,3.487,15,5.155869,5.155869,9.886841,84.93681,84.93681,120.0392
10315,Au1F3Ni1,0.7731,221,4.023764,4.023764,4.023764,90.0,90.0,90.0
10316,Ca2Mo2O8,3.3568,88,6.896192,6.896192,6.896192,134.8052,134.8052,65.833
10317,B16Li8O28,5.6129999999999995,110,8.69615,8.69615,8.69615,113.1877,113.1877,102.2695
10318,F3K1Mn1,2.6977,221,4.266362,4.266362,4.266362,90.0,90.0,90.0
10319,F18Ni6Rb6,4.0616,194,5.934544,5.934544,14.49545,90.0,90.0,120.005
10320,O3Sn1Tc1,0.1375,221,4.123181,4.123181,4.123181,90.0,90.0,90.0
10321,Ce2N2Se1,1.0594,164,3.950563,3.950563,7.027062,90.00001,89.99999,120.0
10322,Ba4Cl16Zn4,4.9,60,6.520605,6.903826,15.59386,90.0,90.0,90.0
10323,Al16K16Sb24,0.9474,14,7.334889,14.93667,16.90298,89.49923,90.0,90.0
10324,K4Mo6O20,3.2776,15,8.254601,8.254601,9.116666,82.48156,82.48156,58.92888
10325,Cr2O8Pr2,0.15360000000000001,141,6.199723,6.199723,6.199723,105.8592,105.8592,116.9654
10326,Ag4Mo4O14,2.5879,2,8.621765,6.163374,7.828856,65.32707,56.98583,70.90656
10327,Ni1Ta1Tl1,0.3099,216,4.275867,4.275867,4.275867,60.0,60.0,60.0
10328,Au4Br16K4,0.7265,14,6.817444,9.525843,13.06725,82.49323,90.0,90.0
10329,Ag3F14Hf2,1.2803,12,5.808738,5.808738,9.246936,88.76741,88.76741,71.40169
10330,Br10K2Sn4,2.3588,140,9.630939,9.630939,9.630939,127.6565,127.6565,77.18215
10331,K4O22Sb8,1.8466,12,10.61364,10.61364,7.287604,85.18289,85.18289,42.3751
10332,Cu4Dy4S8,1.8708,62,3.965332,6.266964,13.48259,90.0,90.0,90.0
10333,O6P8S12,3.2058,11,13.00985,7.006537,7.716949,75.50428,90.0,90.0
10334,K4Li4O4,2.3415,64,5.485259,5.485259,6.506161,90.0,90.0,107.7453
10335,Se16Ti4Tl16,2.1992,14,8.666706,8.764811,16.23694,75.68356,90.00058,90.00137
10336,C1O4Rb4,1.7788,146,5.777426,5.777426,5.777426,89.52715,89.52715,89.52715
10337,O8Si2Zn4,3.3701,122,5.884533,5.884533,5.884533,107.6217,107.6217,113.2371
10338,Cu3Se4V1,1.0549,215,5.654186,5.654186,5.654186,90.0,90.0,90.0
10339,Ca9O15Si3,3.286,160,9.443124,9.443124,9.443124,44.67602,44.67602,44.67602
10340,Pb2Pd3S2,0.0813,166,5.817681,5.817681,5.817681,63.0198,63.0198,63.0198
10341,F12K2Sb2,4.916,111,5.353273,5.353273,10.07785,90.0,90.0,90.0
10342,Ba10O20Ru4,0.7672,194,6.086406,6.086406,18.05887,90.0,90.0,120.0011
10343,Br12Na6Y2,4.2561,14,7.773871,7.266589,13.14809,123.3714,90.0,90.0
10344,B1H4Na1,6.6251999999999995,216,4.319205,4.319205,4.319205,60.0,60.0,60.0
10345,Cs2Fe2O4,1.7530999999999999,227,6.169573,6.169573,6.169573,60.0,60.0,60.0
10346,Ca12Mn2N10,0.8391000000000001,193,6.249673,6.249673,12.35454,90.0,90.0,120.0027
10347,Co2Na4S4,1.509,72,7.10369,7.10369,7.10369,131.1171,125.5316,76.1871
10348,Bi4Cr4O12,1.321,15,5.577627,5.577627,9.777867,73.79481,73.79481,60.18111
10349,O24P8Tl8,3.46,114,7.786415,7.786415,11.35845,90.0,90.0,90.0
10350,Ge1I2Y2,0.1642,166,11.07705,11.07708,11.07705,22.04566,22.04569,22.04558
10351,Ca4O12Si4,3.5119,139,6.250075,6.250075,6.250075,109.4006,109.4006,109.6126
10352,Ag2F8Na4,2.0527,14,10.55318,3.388579,5.675636,80.79571,90.0,90.0
10353,Ho4O14Ru4,0.5524,227,7.234688,7.234688,7.234688,60.0,60.0,60.0
10354,Mg2Se8Y4,1.3014000000000001,227,8.272914,8.272914,8.272914,60.0,60.0,60.0
10355,Ca3O8V2,3.4342,12,5.638389,5.638389,7.067537,66.86692,66.86692,60.09118
10356,I8Rb4Zn2,3.2734,11,8.31601,7.858536,10.53023,70.46074,90.0,90.0
10357,C4Li4N4,5.4945,62,3.742919,6.570106,8.824799,90.0,90.0,90.0
10358,Cu2S4W1,1.7408000000000001,121,6.569352,6.569352,6.569352,130.5154,130.5154,72.58422
10359,Ca8O16Ru4,0.9849,61,5.494893,5.806831,11.62754,90.0,90.0,90.0
10360,O16Pb6V4,3.0186,14,6.556161,7.518388,9.370912,68.15769,90.0,90.0
10361,P4Si2Zn2,1.3671,122,6.489431,6.489431,6.489431,130.7451,130.7451,72.21835
10362,Bi1In1O3,0.22410000000000002,221,4.154934,4.154934,4.154934,90.0,90.0,90.0
10363,B12Ba6O24,4.775,161,8.526506,8.526506,8.526506,96.09636,96.09636,96.09636
10364,Al2O6Pr2,3.9206000000000003,167,5.366718,5.366718,5.366718,60.27355,60.27355,60.27355
10365,As1S3Tl3,1.2308,160,6.261538,6.261538,6.261538,106.922,106.922,106.922
10366,Cu6Rb2S4,0.7227,12,7.647131,7.647131,8.416965,68.52778,68.52778,29.82442
10367,Al4Ca6N8,2.5389,15,6.737339,6.737339,5.534736,88.36336,88.36336,75.98545
10368,Na1O3Ta1,2.5038,221,3.995403,3.995403,3.995403,90.0,90.0,90.0